################################################################
GPU n=8
################################################################
################################################################
Running: mpirun -n 1 python polymer_brush.py --mode=gpu --user=8
HOOMD-blue 1.3.3-unknown CUDA (7.5) SINGLE MPI SSE SSE2 SSE3 
Compiled: 03/06/2016
Copyright 2009-2016 The Regents of the University of Michigan.

All publications and presentations based on HOOMD-blue, including any reports
or published results obtained, in whole or in part, with HOOMD-blue, will
acknowledge its use according to the terms posted at the time of submission on:
http://codeblue.umich.edu/hoomd-blue/citations.html
-----
You are using HOOMD-blue. Read and cite the following:
* J A Anderson, C D Lorenz, and A Travesset. "General purpose molecular dynamics
  simulations fully implemented on graphics processing units", Journal of
  Computational Physics 227 (2008) 5342--5359
and
* J Glaser, T D Nguyen, J A Anderson, P Liu, F Spiga, J A Millan, D C Morse, and
  S C Glotzer. "Strong scaling of general-purpose molecular dynamics simulations
  on GPUs", Computer Physics Communications 192 (2015) 97--107
and
* http://codeblue.umich.edu/hoomd-blue
You can save these citations to file using cite.save().
-----
notice(2): This system is not compute exclusive, using local rank to select GPUs
notice(2): Unable to identify node local rank information
notice(2): Using global rank to select GPUs
HOOMD-blue is running on the following GPU(s):
 [0]  Tesla P100-PCIE-16GB  56 SM_6.0 @ 1.33 GHz, 16276 MiB DRAM
polymer_brush.py:012  |  system=init.read_xml(filename='init.xml')
notice(2): Reading init.xml...
notice(2): --- hoomd_xml file read summary
notice(2): 1740 positions at timestep 0
notice(2): 1740 velocities
notice(2): 1740 masses
notice(2): 1740 diameters
notice(2): 5 particle types
notice(2): 1740 particle body values
notice(2): 1580 bonds
notice(2): 1420 angles
notice(2): 3780 dihedrals
notice(2): 1740 charges
notice(2): Group "all" created containing 1740 particles
polymer_brush.py:018  |  system.replicate(nx=rep, ny=rep, nz=1)
polymer_brush.py:019  |  typeW1=group.type('W1')
notice(2): Group "type W1" created containing 3840 particles
polymer_brush.py:020  |  typeW2=group.type('W2')
*Warning*: W2 does not exist in the system, creating an empty group
notice(2): Group "type W2" created containing 0 particles
notice(2): Group "Wall" created containing 3840 particles
polymer_brush.py:022  |  typeB= group.type('B')
notice(2): Group "type B" created containing 65280 particles
polymer_brush.py:023  |  typeSolvBackBone = group.type('Solvent')
notice(2): Group "type Solvent" created containing 25600 particles
polymer_brush.py:024  |  typeC= group.type('C')
*Warning*: C does not exist in the system, creating an empty group
notice(2): Group "type C" created containing 0 particles
polymer_brush.py:025  |  typeCH3_W1=group.type('CH3_W1')
notice(2): Group "type CH3_W1" created containing 3840 particles
polymer_brush.py:026  |  typeCH3_W2=group.type('CH3_W2')
*Warning*: CH3_W2 does not exist in the system, creating an empty group
notice(2): Group "type CH3_W2" created containing 0 particles
polymer_brush.py:027  |  typeSolvTail=group.type('SolvTail')
notice(2): Group "type SolvTail" created containing 12800 particles
notice(2): Group "BCH3-particles" created containing 69120 particles
notice(2): Group "CCH3-particles" created containing 0 particles
notice(2): Group "all-solvent" created containing 38400 particles
notice(2): Group "bc-particles" created containing 69120 particles
notice(2): Group "typeAll" created containing 107520 particles
notice(2): Group "typeNPT" created containing 111360 particles
Number of polymeric particles 107520
polymer_brush.py:044  |  lj = pair.lj(r_cut=3.3)
nlist.py:1051  |          globals.neighbor_list = cell();
polymer_brush.py:052  |  lj.pair_coeff.set('Solvent','W1' ,epsilon=0 , sigma=1.3144)
polymer_brush.py:053  |  lj.pair_coeff.set('Solvent','W2' ,epsilon=0 , sigma=1.3144)
polymer_brush.py:054  |  lj.pair_coeff.set('Solvent','Solvent' ,epsilon=1.0*tether_bulk , sigma=1.3144)
polymer_brush.py:055  |  lj.pair_coeff.set('Solvent','B' ,epsilon=tether_bulk , sigma=1.3144)
polymer_brush.py:056  |  lj.pair_coeff.set('Solvent','C' ,epsilon=tether_bulk , sigma=1.3144)
polymer_brush.py:057  |  lj.pair_coeff.set('Solvent','CH3_W1' ,epsilon=bulk_tails , sigma=1.3144)
polymer_brush.py:058  |  lj.pair_coeff.set('Solvent','CH3_W2' ,epsilon=bulk_tails , sigma=1.3144)
polymer_brush.py:059  |  lj.pair_coeff.set('Solvent','SolvTail' ,epsilon=bulk_tails , sigma=1.3144)
polymer_brush.py:060  |  lj.pair_coeff.set('B','B' ,epsilon=tether_bulk , sigma=1.3144)
polymer_brush.py:061  |  lj.pair_coeff.set('C','C' ,epsilon=tether_bulk , sigma=1.3144)
polymer_brush.py:062  |  lj.pair_coeff.set('B','C' ,epsilon=tether_bulk , sigma=1.3144)
polymer_brush.py:063  |  lj.pair_coeff.set('B','CH3_W1' ,epsilon=bulk_tails , sigma=1.3144)
polymer_brush.py:064  |  lj.pair_coeff.set('B','CH3_W2' ,epsilon=bulk_tails , sigma=1.3144)
polymer_brush.py:065  |  lj.pair_coeff.set('C','CH3_W1' ,epsilon=bulk_tails , sigma=1.3144)
polymer_brush.py:066  |  lj.pair_coeff.set('C','CH3_W2' ,epsilon=bulk_tails , sigma=1.3144)
polymer_brush.py:067  |  lj.pair_coeff.set('CH3_W1','CH3_W1' ,epsilon=tails , sigma=1.3144)
polymer_brush.py:068  |  lj.pair_coeff.set('CH3_W1','CH3_W2' ,epsilon=tails , sigma=1.3144)
polymer_brush.py:069  |  lj.pair_coeff.set('CH3_W2' ,'CH3_W2' ,epsilon=tails , sigma=1.3144)
polymer_brush.py:071  |  lj.pair_coeff.set('B','SolvTail' ,epsilon=bulk_tails , sigma=1.3144)
polymer_brush.py:072  |  lj.pair_coeff.set('C','SolvTail' ,epsilon=bulk_tails , sigma=1.3144)
polymer_brush.py:073  |  lj.pair_coeff.set('CH3_W1','SolvTail' ,epsilon=tails , sigma=1.3144)
polymer_brush.py:074  |  lj.pair_coeff.set('CH3_W2','SolvTail' ,epsilon=tails , sigma=1.3144)
polymer_brush.py:075  |  lj.pair_coeff.set('SolvTail' ,'SolvTail' ,epsilon=tails , sigma=1.3144)
polymer_brush.py:077  |  lj.pair_coeff.set('B','C' ,epsilon=0.01 , sigma=2.62 , alpha=0.0)
polymer_brush.py:078  |  lj.pair_coeff.set('W1','W2' ,epsilon=0.0 , sigma=1.0)
polymer_brush.py:079  |  lj.pair_coeff.set('W1','W1' ,epsilon=0.0 , sigma=1.0)
polymer_brush.py:080  |  lj.pair_coeff.set('W1','B' ,epsilon=0.0 , sigma = 1.0)
polymer_brush.py:081  |  lj.pair_coeff.set('W1','C' ,epsilon=0.0 , sigma = 1.0)
polymer_brush.py:082  |  lj.pair_coeff.set('W2','W2' ,epsilon=0.0 , sigma=1.0)
polymer_brush.py:083  |  lj.pair_coeff.set('W2','B' ,epsilon=0.0 , sigma = 1.0)
polymer_brush.py:084  |  lj.pair_coeff.set('W2','C' ,epsilon=0.0 , sigma = 1.0)
polymer_brush.py:085  |  lj.pair_coeff.set('W1','CH3_W1' ,epsilon=0.0 , sigma = 1.0)
polymer_brush.py:086  |  lj.pair_coeff.set('W1','CH3_W2' ,epsilon=0.0 , sigma = 1.0)
polymer_brush.py:087  |  lj.pair_coeff.set('W1','SolvTail' ,epsilon=0.0 , sigma = 1.0)
polymer_brush.py:088  |  lj.pair_coeff.set('W2','CH3_W1' ,epsilon=0.0 , sigma = 1.0)
polymer_brush.py:089  |  lj.pair_coeff.set('W2','CH3_W2' ,epsilon=0.0 , sigma = 1.0)
polymer_brush.py:090  |  lj.pair_coeff.set('W2','SolvTail' ,epsilon=0.0 , sigma = 1.0)
polymer_brush.py:091  |  lj.pair_coeff.set('A','C' ,epsilon=0.0 , sigma=1.0 , alpha=0.0)
polymer_brush.py:093  |  slj = pair.slj(r_cut= 1.3)
notice(2): Notice: slj set d_max=2.0
polymer_brush.py:094  |  slj.set_params(mode="shift")
pair.py:886  |          pair.set_params(self, mode=mode);
polymer_brush.py:095  |  slj.pair_coeff.set('W2','Solvent', epsilon = 1.0 , sigma =1.25 ,r_cut =1.25* 2**(1.0/6.0))
polymer_brush.py:096  |  slj.pair_coeff.set('W1','Solvent', epsilon = 1.0 , sigma =1.25 ,r_cut =1.25* 2**(1.0/6.0))
polymer_brush.py:097  |  slj.pair_coeff.set('Solvent','Solvent', epsilon = 0, sigma = 1.0)
polymer_brush.py:098  |  slj.pair_coeff.set('Solvent','B', epsilon = 0, sigma = 1.0)
polymer_brush.py:099  |  slj.pair_coeff.set('Solvent','C', epsilon = 0, sigma = 1.0)
polymer_brush.py:100  |  slj.pair_coeff.set('Solvent','CH3_W1', epsilon = 0, sigma = 1.0)
polymer_brush.py:101  |  slj.pair_coeff.set('Solvent','CH3_W2', epsilon = 0, sigma = 1.0)
polymer_brush.py:102  |  slj.pair_coeff.set('Solvent','SolvTail', epsilon = 0, sigma = 1.0)
polymer_brush.py:103  |  slj.pair_coeff.set('W1','W2', epsilon = 0 , sigma =1.0)
polymer_brush.py:104  |  slj.pair_coeff.set('W1','W1', epsilon = 0 , sigma =1.0)
polymer_brush.py:105  |  slj.pair_coeff.set('W2','W2', epsilon = 0 , sigma =1.0)
polymer_brush.py:106  |  slj.pair_coeff.set('W1','B', epsilon = 1.0 , sigma =1.25 ,r_cut =1.25* 2**(1.0/6.0))
polymer_brush.py:107  |  slj.pair_coeff.set('W1','C', epsilon = 1.0 , sigma =1.25 ,r_cut =1.25* 2**(1.0/6.0))
polymer_brush.py:108  |  slj.pair_coeff.set('W2','B', epsilon = 1.0 , sigma =1.25 ,r_cut =1.25* 2**(1.0/6.0))
polymer_brush.py:109  |  slj.pair_coeff.set('W2','C', epsilon = 1.0 , sigma =1.25 ,r_cut =1.25* 2**(1.0/6.0))
polymer_brush.py:110  |  slj.pair_coeff.set('W1','CH3_W1', epsilon = 1.0 , sigma =1.25 ,r_cut =1.25* 2**(1.0/6.0))
polymer_brush.py:111  |  slj.pair_coeff.set('W1','CH3_W2', epsilon = 1.0 , sigma =1.25 ,r_cut =1.25* 2**(1.0/6.0))
polymer_brush.py:112  |  slj.pair_coeff.set('W2','CH3_W1', epsilon = 1.0 , sigma =1.25 ,r_cut =1.25* 2**(1.0/6.0))
polymer_brush.py:113  |  slj.pair_coeff.set('W2','CH3_W2', epsilon = 1.0 , sigma =1.25 ,r_cut =1.25* 2**(1.0/6.0))
polymer_brush.py:114  |  slj.pair_coeff.set('W1','SolvTail', epsilon = 1.0 , sigma =1.25 ,r_cut =1.25* 2**(1.0/6.0))
polymer_brush.py:115  |  slj.pair_coeff.set('W2','SolvTail', epsilon = 1.0 , sigma =1.25 ,r_cut =1.25* 2**(1.0/6.0))
polymer_brush.py:116  |  slj.pair_coeff.set('B','B', epsilon = 0, sigma = 1.0)
polymer_brush.py:117  |  slj.pair_coeff.set('C','C', epsilon = 0, sigma = 1.0)
polymer_brush.py:118  |  slj.pair_coeff.set('B','C', epsilon = 0, sigma = 1.0)
polymer_brush.py:119  |  slj.pair_coeff.set('B','CH3_W1', epsilon = 0, sigma = 1.0)
polymer_brush.py:120  |  slj.pair_coeff.set('B','CH3_W2', epsilon = 0, sigma = 1.0)
polymer_brush.py:121  |  slj.pair_coeff.set('B','SolvTail', epsilon = 0, sigma = 1.0)
polymer_brush.py:122  |  slj.pair_coeff.set('C','CH3_W1', epsilon = 0, sigma = 1.0)
polymer_brush.py:123  |  slj.pair_coeff.set('C','CH3_W2', epsilon = 0, sigma = 1.0)
polymer_brush.py:124  |  slj.pair_coeff.set('C','SolvTail', epsilon = 0, sigma = 1.0)
polymer_brush.py:125  |  slj.pair_coeff.set('CH3_W1','CH3_W1', epsilon = 0, sigma = 1.0)
polymer_brush.py:126  |  slj.pair_coeff.set('CH3_W1','CH3_W2', epsilon = 0, sigma = 1.0)
polymer_brush.py:127  |  slj.pair_coeff.set('CH3_W2','CH3_W2', epsilon = 0, sigma = 1.0)
polymer_brush.py:128  |  slj.pair_coeff.set('CH3_W1','SolvTail', epsilon = 0, sigma = 1.0)
polymer_brush.py:129  |  slj.pair_coeff.set('CH3_W2','SolvTail', epsilon = 0, sigma = 1.0)
polymer_brush.py:130  |  slj.pair_coeff.set('SolvTail','SolvTail', epsilon = 0, sigma = 1.0)
polymer_brush.py:133  |  harmonicO_O= bond.harmonic(name = 'O-O-bond')
polymer_brush.py:135  |  harmonicO_O.bond_coeff.set('oleic', k=9892.9362 , r0=0.5)
polymer_brush.py:138  |  harmonicO_O.bond_coeff.set('wall', k=9892.9362, r0=1.25)
polymer_brush.py:141  |  angleWO = angle.harmonic()
polymer_brush.py:142  |  angleWO.set_coeff('W-O' , k = 201.2878 , t0= 2.5307)
polymer_brush.py:143  |  angleWO.set_coeff('O-O' , k = 201.2878 , t0= 1.92)
polymer_brush.py:144  |  angleWO.set_coeff('kink' , k = 1000.2878 , t0= 2.8)
polymer_brush.py:150  |  dihedralField = dihedral.harmonic()
polymer_brush.py:151  |  dihedralField.set_coeff('DihedralW1' , k = 2.6838 , d=1 , n= 1)
polymer_brush.py:152  |  dihedralField.set_coeff('DihedralW2' , k = 1.4543 , d=-1 , n= 2)
polymer_brush.py:153  |  dihedralField.set_coeff('DihedralW3' , k =5.4347 , d=1 , n= 3)
polymer_brush.py:154  |  dihedralField.set_coeff('Dihedral1' , k =2.6838 , d=1 , n= 1)
polymer_brush.py:155  |  dihedralField.set_coeff('Dihedral2' , k = 1.4543 , d=-1 , n= 2)
polymer_brush.py:156  |  dihedralField.set_coeff('Dihedral3' , k =5.4347 , d=1 , n= 3)
polymer_brush.py:158  |  integrate.mode_standard(dt= 0.005)
polymer_brush.py:160  |  integrator=integrate.nve(group=typeAll , limit=0.01 )
polymer_brush.py:161  |  zeroer = update.zero_momentum(period = 1)
polymer_brush.py:164  |  run(200)
notice(2): -- Neighborlist exclusion statistics -- :
notice(2): Particles with 1 exclusions             : 20480
notice(2): Particles with 2 exclusions             : 90880
notice(2): Neighbors included by diameter          : yes
notice(2): Neighbors excluded when in the same body: no
** starting run **
Time 00:00:02 | Step 200 / 200 | TPS 173.862 | ETA 00:00:00
Average TPS: 173.856
---------
-- Neighborlist stats:
9 normal updates / 1 forced updates / 0 dangerous updates
n_neigh_min: 5 / n_neigh_max: 141 / n_neigh_avg: 84.0207
shortest rebuild period: 21
-- Cell list stats:
Dimension: 20, 20, 8
n_min    : 0 / n_max: 121 / n_avg: 34.8
** run complete **
polymer_brush.py:165  |  zeroer.disable()
polymer_brush.py:167  |  integrator.disable()
polymer_brush.py:169  |  integrator=integrate.npt(group=typeAll , tau=1.0 , T= 1.0 , tauP = 1.2 , P = 0.00078 , x=False , y = False , z = True , rescale_all=True )
polymer_brush.py:172  |  run(5e2, profile=True, limit_hours=1)
** starting run **
Time 00:00:03 | Step 700 / 700 | TPS 313.849 | ETA 00:00:00
Average TPS: 313.841
Simulation:  1.5932s | 100.000% 
        Bond harmonic:      0.0152s |  0.957% 
                update bond table:  0.0005s |  0.034% 
                Self:               0.0147s |  0.923% 
        Harmonic Angle:     0.0244s |  1.533% 
        Harmonic Dihedral:  0.0717s |  4.502% 
        Integrate:          0.0933s |  5.854% 
                NPT step 1:  0.0075s |  0.469% 
                        Thermo:  0.0006s |  0.040% 
                        Self:    0.0068s |  0.429% 
                NPT step 2:  0.0442s |  2.776% 
                        Thermo:  0.0294s |  1.843% 
                        Self:    0.0149s |  0.934% 
                Net force:   0.0391s |  2.452% 
                Self:        0.0025s |  0.156% 
        Neighbor:           0.6754s | 42.394% 
                Cell:        0.0171s |  1.075% 
                        compute:  0.0037s |  0.231% 
                        init:     0.0108s |  0.677% 
                        Self:     0.0027s |  0.168% 
                compute:     0.3663s | 22.993% 
                dist-check:  0.0086s |  0.540% 
                filter:      0.2333s | 14.641% 
                head-list:   0.0319s |  2.005% 
                update-ex:   0.0001s |  0.004% 
                Self:        0.0181s |  1.136% 
        Pair lj:            0.3337s | 20.946% 
        Pair slj:           0.3731s | 23.417% 
        SFCPack:            0.0005s |  0.032% 
        Self:               0.0058s |  0.366% 
---------
-- Neighborlist stats:
66 normal updates / 3 forced updates / 0 dangerous updates
n_neigh_min: 3 / n_neigh_max: 148 / n_neigh_avg: 83.67496
shortest rebuild period: 6
-- Cell list stats:
Dimension: 20, 20, 9
n_min    : 0 / n_max: 122 / n_avg: 30.93333
** run complete **










################################################################
Running: mpirun -n 2 python polymer_brush.py --mode=gpu --user=8
HOOMD-blue 1.3.3-unknown CUDA (7.5) SINGLE MPI SSE SSE2 SSE3 
Compiled: 03/06/2016
Copyright 2009-2016 The Regents of the University of Michigan.

All publications and presentations based on HOOMD-blue, including any reports
or published results obtained, in whole or in part, with HOOMD-blue, will
acknowledge its use according to the terms posted at the time of submission on:
http://codeblue.umich.edu/hoomd-blue/citations.html
-----
You are using HOOMD-blue. Read and cite the following:
* J A Anderson, C D Lorenz, and A Travesset. "General purpose molecular dynamics
  simulations fully implemented on graphics processing units", Journal of
  Computational Physics 227 (2008) 5342--5359
and
* J Glaser, T D Nguyen, J A Anderson, P Liu, F Spiga, J A Millan, D C Morse, and
  S C Glotzer. "Strong scaling of general-purpose molecular dynamics simulations
  on GPUs", Computer Physics Communications 192 (2015) 97--107
and
* http://codeblue.umich.edu/hoomd-blue
You can save these citations to file using cite.save().
-----
notice(2): This system is not compute exclusive, using local rank to select GPUs
notice(2): Unable to identify node local rank information
notice(2): Using global rank to select GPUs
HOOMD-blue is running on the following GPU(s):
Rank 0:  [0]  Tesla P100-PCIE-16GB  56 SM_6.0 @ 1.33 GHz, 16276 MiB DRAM
Rank 1:  [1]  Tesla P100-PCIE-16GB  56 SM_6.0 @ 1.33 GHz, 16276 MiB DRAM
polymer_brush.py:012  |  system=init.read_xml(filename='init.xml')
notice(2): Reading init.xml...
notice(2): --- hoomd_xml file read summary
notice(2): 1740 positions at timestep 0
notice(2): 1740 velocities
notice(2): 1740 masses
notice(2): 1740 diameters
notice(2): 5 particle types
notice(2): 1740 particle body values
notice(2): 1580 bonds
notice(2): 1420 angles
notice(2): 3780 dihedrals
notice(2): 1740 charges
HOOMD-blue is using domain decomposition: n_x = 1 n_y = 1 n_z = 2.
1 x 1 x 2 local grid on 1 nodes
notice(2): Group "all" created containing 1740 particles
polymer_brush.py:018  |  system.replicate(nx=rep, ny=rep, nz=1)
polymer_brush.py:019  |  typeW1=group.type('W1')
notice(2): Group "type W1" created containing 3840 particles
polymer_brush.py:020  |  typeW2=group.type('W2')
*Warning*: W2 does not exist in the system, creating an empty group
notice(2): Group "type W2" created containing 0 particles
notice(2): Group "Wall" created containing 3840 particles
polymer_brush.py:022  |  typeB= group.type('B')
notice(2): Group "type B" created containing 65280 particles
polymer_brush.py:023  |  typeSolvBackBone = group.type('Solvent')
notice(2): Group "type Solvent" created containing 25600 particles
polymer_brush.py:024  |  typeC= group.type('C')
*Warning*: C does not exist in the system, creating an empty group
notice(2): Group "type C" created containing 0 particles
polymer_brush.py:025  |  typeCH3_W1=group.type('CH3_W1')
notice(2): Group "type CH3_W1" created containing 3840 particles
polymer_brush.py:026  |  typeCH3_W2=group.type('CH3_W2')
*Warning*: CH3_W2 does not exist in the system, creating an empty group
notice(2): Group "type CH3_W2" created containing 0 particles
polymer_brush.py:027  |  typeSolvTail=group.type('SolvTail')
notice(2): Group "type SolvTail" created containing 12800 particles
notice(2): Group "BCH3-particles" created containing 69120 particles
notice(2): Group "CCH3-particles" created containing 0 particles
notice(2): Group "all-solvent" created containing 38400 particles
notice(2): Group "bc-particles" created containing 69120 particles
notice(2): Group "typeAll" created containing 107520 particles
notice(2): Group "typeNPT" created containing 111360 particles
Number of polymeric particles 107520
polymer_brush.py:044  |  lj = pair.lj(r_cut=3.3)
nlist.py:1051  |          globals.neighbor_list = cell();
polymer_brush.py:052  |  lj.pair_coeff.set('Solvent','W1' ,epsilon=0 , sigma=1.3144)
polymer_brush.py:053  |  lj.pair_coeff.set('Solvent','W2' ,epsilon=0 , sigma=1.3144)
polymer_brush.py:054  |  lj.pair_coeff.set('Solvent','Solvent' ,epsilon=1.0*tether_bulk , sigma=1.3144)
polymer_brush.py:055  |  lj.pair_coeff.set('Solvent','B' ,epsilon=tether_bulk , sigma=1.3144)
polymer_brush.py:056  |  lj.pair_coeff.set('Solvent','C' ,epsilon=tether_bulk , sigma=1.3144)
polymer_brush.py:057  |  lj.pair_coeff.set('Solvent','CH3_W1' ,epsilon=bulk_tails , sigma=1.3144)
polymer_brush.py:058  |  lj.pair_coeff.set('Solvent','CH3_W2' ,epsilon=bulk_tails , sigma=1.3144)
polymer_brush.py:059  |  lj.pair_coeff.set('Solvent','SolvTail' ,epsilon=bulk_tails , sigma=1.3144)
polymer_brush.py:060  |  lj.pair_coeff.set('B','B' ,epsilon=tether_bulk , sigma=1.3144)
polymer_brush.py:061  |  lj.pair_coeff.set('C','C' ,epsilon=tether_bulk , sigma=1.3144)
polymer_brush.py:062  |  lj.pair_coeff.set('B','C' ,epsilon=tether_bulk , sigma=1.3144)
polymer_brush.py:063  |  lj.pair_coeff.set('B','CH3_W1' ,epsilon=bulk_tails , sigma=1.3144)
polymer_brush.py:064  |  lj.pair_coeff.set('B','CH3_W2' ,epsilon=bulk_tails , sigma=1.3144)
polymer_brush.py:065  |  lj.pair_coeff.set('C','CH3_W1' ,epsilon=bulk_tails , sigma=1.3144)
polymer_brush.py:066  |  lj.pair_coeff.set('C','CH3_W2' ,epsilon=bulk_tails , sigma=1.3144)
polymer_brush.py:067  |  lj.pair_coeff.set('CH3_W1','CH3_W1' ,epsilon=tails , sigma=1.3144)
polymer_brush.py:068  |  lj.pair_coeff.set('CH3_W1','CH3_W2' ,epsilon=tails , sigma=1.3144)
polymer_brush.py:069  |  lj.pair_coeff.set('CH3_W2' ,'CH3_W2' ,epsilon=tails , sigma=1.3144)
polymer_brush.py:071  |  lj.pair_coeff.set('B','SolvTail' ,epsilon=bulk_tails , sigma=1.3144)
polymer_brush.py:072  |  lj.pair_coeff.set('C','SolvTail' ,epsilon=bulk_tails , sigma=1.3144)
polymer_brush.py:073  |  lj.pair_coeff.set('CH3_W1','SolvTail' ,epsilon=tails , sigma=1.3144)
polymer_brush.py:074  |  lj.pair_coeff.set('CH3_W2','SolvTail' ,epsilon=tails , sigma=1.3144)
polymer_brush.py:075  |  lj.pair_coeff.set('SolvTail' ,'SolvTail' ,epsilon=tails , sigma=1.3144)
polymer_brush.py:077  |  lj.pair_coeff.set('B','C' ,epsilon=0.01 , sigma=2.62 , alpha=0.0)
polymer_brush.py:078  |  lj.pair_coeff.set('W1','W2' ,epsilon=0.0 , sigma=1.0)
polymer_brush.py:079  |  lj.pair_coeff.set('W1','W1' ,epsilon=0.0 , sigma=1.0)
polymer_brush.py:080  |  lj.pair_coeff.set('W1','B' ,epsilon=0.0 , sigma = 1.0)
polymer_brush.py:081  |  lj.pair_coeff.set('W1','C' ,epsilon=0.0 , sigma = 1.0)
polymer_brush.py:082  |  lj.pair_coeff.set('W2','W2' ,epsilon=0.0 , sigma=1.0)
polymer_brush.py:083  |  lj.pair_coeff.set('W2','B' ,epsilon=0.0 , sigma = 1.0)
polymer_brush.py:084  |  lj.pair_coeff.set('W2','C' ,epsilon=0.0 , sigma = 1.0)
polymer_brush.py:085  |  lj.pair_coeff.set('W1','CH3_W1' ,epsilon=0.0 , sigma = 1.0)
polymer_brush.py:086  |  lj.pair_coeff.set('W1','CH3_W2' ,epsilon=0.0 , sigma = 1.0)
polymer_brush.py:087  |  lj.pair_coeff.set('W1','SolvTail' ,epsilon=0.0 , sigma = 1.0)
polymer_brush.py:088  |  lj.pair_coeff.set('W2','CH3_W1' ,epsilon=0.0 , sigma = 1.0)
polymer_brush.py:089  |  lj.pair_coeff.set('W2','CH3_W2' ,epsilon=0.0 , sigma = 1.0)
polymer_brush.py:090  |  lj.pair_coeff.set('W2','SolvTail' ,epsilon=0.0 , sigma = 1.0)
polymer_brush.py:091  |  lj.pair_coeff.set('A','C' ,epsilon=0.0 , sigma=1.0 , alpha=0.0)
polymer_brush.py:093  |  slj = pair.slj(r_cut= 1.3)
notice(2): Notice: slj set d_max=2.0
polymer_brush.py:094  |  slj.set_params(mode="shift")
pair.py:886  |          pair.set_params(self, mode=mode);
polymer_brush.py:095  |  slj.pair_coeff.set('W2','Solvent', epsilon = 1.0 , sigma =1.25 ,r_cut =1.25* 2**(1.0/6.0))
polymer_brush.py:096  |  slj.pair_coeff.set('W1','Solvent', epsilon = 1.0 , sigma =1.25 ,r_cut =1.25* 2**(1.0/6.0))
polymer_brush.py:097  |  slj.pair_coeff.set('Solvent','Solvent', epsilon = 0, sigma = 1.0)
polymer_brush.py:098  |  slj.pair_coeff.set('Solvent','B', epsilon = 0, sigma = 1.0)
polymer_brush.py:099  |  slj.pair_coeff.set('Solvent','C', epsilon = 0, sigma = 1.0)
polymer_brush.py:100  |  slj.pair_coeff.set('Solvent','CH3_W1', epsilon = 0, sigma = 1.0)
polymer_brush.py:101  |  slj.pair_coeff.set('Solvent','CH3_W2', epsilon = 0, sigma = 1.0)
polymer_brush.py:102  |  slj.pair_coeff.set('Solvent','SolvTail', epsilon = 0, sigma = 1.0)
polymer_brush.py:103  |  slj.pair_coeff.set('W1','W2', epsilon = 0 , sigma =1.0)
polymer_brush.py:104  |  slj.pair_coeff.set('W1','W1', epsilon = 0 , sigma =1.0)
polymer_brush.py:105  |  slj.pair_coeff.set('W2','W2', epsilon = 0 , sigma =1.0)
polymer_brush.py:106  |  slj.pair_coeff.set('W1','B', epsilon = 1.0 , sigma =1.25 ,r_cut =1.25* 2**(1.0/6.0))
polymer_brush.py:107  |  slj.pair_coeff.set('W1','C', epsilon = 1.0 , sigma =1.25 ,r_cut =1.25* 2**(1.0/6.0))
polymer_brush.py:108  |  slj.pair_coeff.set('W2','B', epsilon = 1.0 , sigma =1.25 ,r_cut =1.25* 2**(1.0/6.0))
polymer_brush.py:109  |  slj.pair_coeff.set('W2','C', epsilon = 1.0 , sigma =1.25 ,r_cut =1.25* 2**(1.0/6.0))
polymer_brush.py:110  |  slj.pair_coeff.set('W1','CH3_W1', epsilon = 1.0 , sigma =1.25 ,r_cut =1.25* 2**(1.0/6.0))
polymer_brush.py:111  |  slj.pair_coeff.set('W1','CH3_W2', epsilon = 1.0 , sigma =1.25 ,r_cut =1.25* 2**(1.0/6.0))
polymer_brush.py:112  |  slj.pair_coeff.set('W2','CH3_W1', epsilon = 1.0 , sigma =1.25 ,r_cut =1.25* 2**(1.0/6.0))
polymer_brush.py:113  |  slj.pair_coeff.set('W2','CH3_W2', epsilon = 1.0 , sigma =1.25 ,r_cut =1.25* 2**(1.0/6.0))
polymer_brush.py:114  |  slj.pair_coeff.set('W1','SolvTail', epsilon = 1.0 , sigma =1.25 ,r_cut =1.25* 2**(1.0/6.0))
polymer_brush.py:115  |  slj.pair_coeff.set('W2','SolvTail', epsilon = 1.0 , sigma =1.25 ,r_cut =1.25* 2**(1.0/6.0))
polymer_brush.py:116  |  slj.pair_coeff.set('B','B', epsilon = 0, sigma = 1.0)
polymer_brush.py:117  |  slj.pair_coeff.set('C','C', epsilon = 0, sigma = 1.0)
polymer_brush.py:118  |  slj.pair_coeff.set('B','C', epsilon = 0, sigma = 1.0)
polymer_brush.py:119  |  slj.pair_coeff.set('B','CH3_W1', epsilon = 0, sigma = 1.0)
polymer_brush.py:120  |  slj.pair_coeff.set('B','CH3_W2', epsilon = 0, sigma = 1.0)
polymer_brush.py:121  |  slj.pair_coeff.set('B','SolvTail', epsilon = 0, sigma = 1.0)
polymer_brush.py:122  |  slj.pair_coeff.set('C','CH3_W1', epsilon = 0, sigma = 1.0)
polymer_brush.py:123  |  slj.pair_coeff.set('C','CH3_W2', epsilon = 0, sigma = 1.0)
polymer_brush.py:124  |  slj.pair_coeff.set('C','SolvTail', epsilon = 0, sigma = 1.0)
polymer_brush.py:125  |  slj.pair_coeff.set('CH3_W1','CH3_W1', epsilon = 0, sigma = 1.0)
polymer_brush.py:126  |  slj.pair_coeff.set('CH3_W1','CH3_W2', epsilon = 0, sigma = 1.0)
polymer_brush.py:127  |  slj.pair_coeff.set('CH3_W2','CH3_W2', epsilon = 0, sigma = 1.0)
polymer_brush.py:128  |  slj.pair_coeff.set('CH3_W1','SolvTail', epsilon = 0, sigma = 1.0)
polymer_brush.py:129  |  slj.pair_coeff.set('CH3_W2','SolvTail', epsilon = 0, sigma = 1.0)
polymer_brush.py:130  |  slj.pair_coeff.set('SolvTail','SolvTail', epsilon = 0, sigma = 1.0)
polymer_brush.py:133  |  harmonicO_O= bond.harmonic(name = 'O-O-bond')
polymer_brush.py:135  |  harmonicO_O.bond_coeff.set('oleic', k=9892.9362 , r0=0.5)
polymer_brush.py:138  |  harmonicO_O.bond_coeff.set('wall', k=9892.9362, r0=1.25)
polymer_brush.py:141  |  angleWO = angle.harmonic()
polymer_brush.py:142  |  angleWO.set_coeff('W-O' , k = 201.2878 , t0= 2.5307)
polymer_brush.py:143  |  angleWO.set_coeff('O-O' , k = 201.2878 , t0= 1.92)
polymer_brush.py:144  |  angleWO.set_coeff('kink' , k = 1000.2878 , t0= 2.8)
polymer_brush.py:150  |  dihedralField = dihedral.harmonic()
polymer_brush.py:151  |  dihedralField.set_coeff('DihedralW1' , k = 2.6838 , d=1 , n= 1)
polymer_brush.py:152  |  dihedralField.set_coeff('DihedralW2' , k = 1.4543 , d=-1 , n= 2)
polymer_brush.py:153  |  dihedralField.set_coeff('DihedralW3' , k =5.4347 , d=1 , n= 3)
polymer_brush.py:154  |  dihedralField.set_coeff('Dihedral1' , k =2.6838 , d=1 , n= 1)
polymer_brush.py:155  |  dihedralField.set_coeff('Dihedral2' , k = 1.4543 , d=-1 , n= 2)
polymer_brush.py:156  |  dihedralField.set_coeff('Dihedral3' , k =5.4347 , d=1 , n= 3)
polymer_brush.py:158  |  integrate.mode_standard(dt= 0.005)
polymer_brush.py:160  |  integrator=integrate.nve(group=typeAll , limit=0.01 )
polymer_brush.py:161  |  zeroer = update.zero_momentum(period = 1)
polymer_brush.py:164  |  run(200)
notice(2): -- Neighborlist exclusion statistics -- :
notice(2): Particles with 1 exclusions             : 20480
notice(2): Particles with 2 exclusions             : 90880
notice(2): Neighbors included by diameter          : yes
notice(2): Neighbors excluded when in the same body: no
** starting run **
Time 00:00:03 | Step 200 / 200 | TPS 131.325 | ETA 00:00:00
Average TPS: 131.322
---------
-- Neighborlist stats:
9 normal updates / 1 forced updates / 0 dangerous updates
n_neigh_min: 14 / n_neigh_max: 140 / n_neigh_avg: 91.8083
shortest rebuild period: 21
-- Cell list stats:
Dimension: 20, 20, 5
n_min    : 8 / n_max: 135 / n_avg: 52.288
** run complete **
polymer_brush.py:165  |  zeroer.disable()
polymer_brush.py:167  |  integrator.disable()
polymer_brush.py:169  |  integrator=integrate.npt(group=typeAll , tau=1.0 , T= 1.0 , tauP = 1.2 , P = 0.00078 , x=False , y = False , z = True , rescale_all=True )
polymer_brush.py:172  |  run(5e2, profile=True, limit_hours=1)
** starting run **
Time 00:00:04 | Step 700 / 700 | TPS 267.87 | ETA 00:00:00
Average TPS: 267.865
Simulation:  1.8666s | 100.000% 
        Bond harmonic:      0.0312s |  1.673% 
                update bond table:  0.0167s |  0.896% 
                Self:               0.0145s |  0.777% 
        Harmonic Angle:     0.0413s |  2.212% 
        Harmonic Dihedral:  0.1204s |  6.451% 
        Integrate:          0.1003s |  5.375% 
                NPT step 1:  0.0165s |  0.884% 
                        Thermo:  0.0012s |  0.063% 
                        Self:    0.0153s |  0.820% 
                NPT step 2:  0.0436s |  2.335% 
                        Thermo:  0.0275s |  1.475% 
                        Self:    0.0161s |  0.860% 
                Net force:   0.0350s |  1.876% 
                Self:        0.0052s |  0.280% 
        Neighbor:           0.6193s | 33.176% 
                Cell:           0.0135s |  0.726% 
                        compute:  0.0039s |  0.210% 
                        init:     0.0085s |  0.455% 
                MPI allreduce:  0.0017s |  0.089% 
                compute:        0.3728s | 19.970% 
                filter:         0.2163s | 11.585% 
                head-list:      0.0097s |  0.518% 
                update-ex:      0.0014s |  0.075% 
                Self:           0.0040s |  0.214% 
        Pair lj:            0.3177s | 17.020% 
        Pair slj:           0.3561s | 19.078% 
        SFCPack:            0.0005s |  0.026% 
        comm_ghost_exch:    0.0488s |  2.613% 
                MPI send/recv:  0.0166s |  0.890% 4.54812 GiB/s 
                Self:           0.0322s |  1.723% 
        comm_ghost_update:  0.0923s |  4.945% 
                MPI send/recv:  0.0476s |  2.549% 6.94306 GiB/s 
                pack:           0.0287s |  1.539% 
                unpack:         0.0101s |  0.540% 
                Self:           0.0059s |  0.317% 
        comm_migrate:       0.0971s |  5.202% 
                MPI send/recv:  0.0087s |  0.467% 45.88962 MiB/s 
                angle:          0.0195s |  1.047% 
                        MPI send/recv:  0.0031s |  0.166% 98.05618 MiB/s 
                        Self:           0.0164s |  0.881% 
                bond:           0.0173s |  0.928% 
                        MPI send/recv:  0.0023s |  0.125% 67.87340 MiB/s 
                        Self:           0.0150s |  0.803% 
                dihedral:       0.0332s |  1.778% 
                        MPI send/recv:  0.0061s |  0.327% 214.96842 MiB/s 
                        Self:           0.0271s |  1.450% 
                pack:           0.0104s |  0.560% 
                unpack:         0.0011s |  0.057% 
                Self:           0.0068s |  0.366% 
        dist-check:         0.0157s |  0.842% 
        Self:               0.0259s |  1.387% 
---------
-- Neighborlist stats:
65 normal updates / 3 forced updates / 0 dangerous updates
n_neigh_min: 4 / n_neigh_max: 148 / n_neigh_avg: 92.93770
shortest rebuild period: 6
-- Cell list stats:
Dimension: 20, 20, 5
n_min    : 6 / n_max: 148 / n_avg: 51.45600
** run complete **










################################################################
Running: mpirun -n 4 python polymer_brush.py --mode=gpu --user=8
HOOMD-blue 1.3.3-unknown CUDA (7.5) SINGLE MPI SSE SSE2 SSE3 
Compiled: 03/06/2016
Copyright 2009-2016 The Regents of the University of Michigan.

All publications and presentations based on HOOMD-blue, including any reports
or published results obtained, in whole or in part, with HOOMD-blue, will
acknowledge its use according to the terms posted at the time of submission on:
http://codeblue.umich.edu/hoomd-blue/citations.html
-----
You are using HOOMD-blue. Read and cite the following:
* J A Anderson, C D Lorenz, and A Travesset. "General purpose molecular dynamics
  simulations fully implemented on graphics processing units", Journal of
  Computational Physics 227 (2008) 5342--5359
and
* J Glaser, T D Nguyen, J A Anderson, P Liu, F Spiga, J A Millan, D C Morse, and
  S C Glotzer. "Strong scaling of general-purpose molecular dynamics simulations
  on GPUs", Computer Physics Communications 192 (2015) 97--107
and
* http://codeblue.umich.edu/hoomd-blue
You can save these citations to file using cite.save().
-----
notice(2): This system is not compute exclusive, using local rank to select GPUs
notice(2): Unable to identify node local rank information
notice(2): Using global rank to select GPUs
HOOMD-blue is running on the following GPU(s):
Rank 0:  [0]  Tesla P100-PCIE-16GB  56 SM_6.0 @ 1.33 GHz, 16276 MiB DRAM
Rank 1:  [1]  Tesla P100-PCIE-16GB  56 SM_6.0 @ 1.33 GHz, 16276 MiB DRAM
Rank 2:  [2]  Tesla P100-PCIE-16GB  56 SM_6.0 @ 1.33 GHz, 16276 MiB DRAM
Rank 3:  [3]  Tesla P100-PCIE-16GB  56 SM_6.0 @ 1.33 GHz, 16276 MiB DRAM
polymer_brush.py:012  |  system=init.read_xml(filename='init.xml')
notice(2): Reading init.xml...
notice(2): --- hoomd_xml file read summary
notice(2): 1740 positions at timestep 0
notice(2): 1740 velocities
notice(2): 1740 masses
notice(2): 1740 diameters
notice(2): 5 particle types
notice(2): 1740 particle body values
notice(2): 1580 bonds
notice(2): 1420 angles
notice(2): 3780 dihedrals
notice(2): 1740 charges
HOOMD-blue is using domain decomposition: n_x = 1 n_y = 1 n_z = 4.
1 x 1 x 4 local grid on 1 nodes
notice(2): Group "all" created containing 1740 particles
polymer_brush.py:018  |  system.replicate(nx=rep, ny=rep, nz=1)
polymer_brush.py:019  |  typeW1=group.type('W1')
notice(2): Group "type W1" created containing 3840 particles
polymer_brush.py:020  |  typeW2=group.type('W2')
*Warning*: W2 does not exist in the system, creating an empty group
notice(2): Group "type W2" created containing 0 particles
notice(2): Group "Wall" created containing 3840 particles
polymer_brush.py:022  |  typeB= group.type('B')
notice(2): Group "type B" created containing 65280 particles
polymer_brush.py:023  |  typeSolvBackBone = group.type('Solvent')
notice(2): Group "type Solvent" created containing 25600 particles
polymer_brush.py:024  |  typeC= group.type('C')
*Warning*: C does not exist in the system, creating an empty group
notice(2): Group "type C" created containing 0 particles
polymer_brush.py:025  |  typeCH3_W1=group.type('CH3_W1')
notice(2): Group "type CH3_W1" created containing 3840 particles
polymer_brush.py:026  |  typeCH3_W2=group.type('CH3_W2')
*Warning*: CH3_W2 does not exist in the system, creating an empty group
notice(2): Group "type CH3_W2" created containing 0 particles
polymer_brush.py:027  |  typeSolvTail=group.type('SolvTail')
notice(2): Group "type SolvTail" created containing 12800 particles
notice(2): Group "BCH3-particles" created containing 69120 particles
notice(2): Group "CCH3-particles" created containing 0 particles
notice(2): Group "all-solvent" created containing 38400 particles
notice(2): Group "bc-particles" created containing 69120 particles
notice(2): Group "typeAll" created containing 107520 particles
notice(2): Group "typeNPT" created containing 111360 particles
Number of polymeric particles 107520
polymer_brush.py:044  |  lj = pair.lj(r_cut=3.3)
nlist.py:1051  |          globals.neighbor_list = cell();
polymer_brush.py:052  |  lj.pair_coeff.set('Solvent','W1' ,epsilon=0 , sigma=1.3144)
polymer_brush.py:053  |  lj.pair_coeff.set('Solvent','W2' ,epsilon=0 , sigma=1.3144)
polymer_brush.py:054  |  lj.pair_coeff.set('Solvent','Solvent' ,epsilon=1.0*tether_bulk , sigma=1.3144)
polymer_brush.py:055  |  lj.pair_coeff.set('Solvent','B' ,epsilon=tether_bulk , sigma=1.3144)
polymer_brush.py:056  |  lj.pair_coeff.set('Solvent','C' ,epsilon=tether_bulk , sigma=1.3144)
polymer_brush.py:057  |  lj.pair_coeff.set('Solvent','CH3_W1' ,epsilon=bulk_tails , sigma=1.3144)
polymer_brush.py:058  |  lj.pair_coeff.set('Solvent','CH3_W2' ,epsilon=bulk_tails , sigma=1.3144)
polymer_brush.py:059  |  lj.pair_coeff.set('Solvent','SolvTail' ,epsilon=bulk_tails , sigma=1.3144)
polymer_brush.py:060  |  lj.pair_coeff.set('B','B' ,epsilon=tether_bulk , sigma=1.3144)
polymer_brush.py:061  |  lj.pair_coeff.set('C','C' ,epsilon=tether_bulk , sigma=1.3144)
polymer_brush.py:062  |  lj.pair_coeff.set('B','C' ,epsilon=tether_bulk , sigma=1.3144)
polymer_brush.py:063  |  lj.pair_coeff.set('B','CH3_W1' ,epsilon=bulk_tails , sigma=1.3144)
polymer_brush.py:064  |  lj.pair_coeff.set('B','CH3_W2' ,epsilon=bulk_tails , sigma=1.3144)
polymer_brush.py:065  |  lj.pair_coeff.set('C','CH3_W1' ,epsilon=bulk_tails , sigma=1.3144)
polymer_brush.py:066  |  lj.pair_coeff.set('C','CH3_W2' ,epsilon=bulk_tails , sigma=1.3144)
polymer_brush.py:067  |  lj.pair_coeff.set('CH3_W1','CH3_W1' ,epsilon=tails , sigma=1.3144)
polymer_brush.py:068  |  lj.pair_coeff.set('CH3_W1','CH3_W2' ,epsilon=tails , sigma=1.3144)
polymer_brush.py:069  |  lj.pair_coeff.set('CH3_W2' ,'CH3_W2' ,epsilon=tails , sigma=1.3144)
polymer_brush.py:071  |  lj.pair_coeff.set('B','SolvTail' ,epsilon=bulk_tails , sigma=1.3144)
polymer_brush.py:072  |  lj.pair_coeff.set('C','SolvTail' ,epsilon=bulk_tails , sigma=1.3144)
polymer_brush.py:073  |  lj.pair_coeff.set('CH3_W1','SolvTail' ,epsilon=tails , sigma=1.3144)
polymer_brush.py:074  |  lj.pair_coeff.set('CH3_W2','SolvTail' ,epsilon=tails , sigma=1.3144)
polymer_brush.py:075  |  lj.pair_coeff.set('SolvTail' ,'SolvTail' ,epsilon=tails , sigma=1.3144)
polymer_brush.py:077  |  lj.pair_coeff.set('B','C' ,epsilon=0.01 , sigma=2.62 , alpha=0.0)
polymer_brush.py:078  |  lj.pair_coeff.set('W1','W2' ,epsilon=0.0 , sigma=1.0)
polymer_brush.py:079  |  lj.pair_coeff.set('W1','W1' ,epsilon=0.0 , sigma=1.0)
polymer_brush.py:080  |  lj.pair_coeff.set('W1','B' ,epsilon=0.0 , sigma = 1.0)
polymer_brush.py:081  |  lj.pair_coeff.set('W1','C' ,epsilon=0.0 , sigma = 1.0)
polymer_brush.py:082  |  lj.pair_coeff.set('W2','W2' ,epsilon=0.0 , sigma=1.0)
polymer_brush.py:083  |  lj.pair_coeff.set('W2','B' ,epsilon=0.0 , sigma = 1.0)
polymer_brush.py:084  |  lj.pair_coeff.set('W2','C' ,epsilon=0.0 , sigma = 1.0)
polymer_brush.py:085  |  lj.pair_coeff.set('W1','CH3_W1' ,epsilon=0.0 , sigma = 1.0)
polymer_brush.py:086  |  lj.pair_coeff.set('W1','CH3_W2' ,epsilon=0.0 , sigma = 1.0)
polymer_brush.py:087  |  lj.pair_coeff.set('W1','SolvTail' ,epsilon=0.0 , sigma = 1.0)
polymer_brush.py:088  |  lj.pair_coeff.set('W2','CH3_W1' ,epsilon=0.0 , sigma = 1.0)
polymer_brush.py:089  |  lj.pair_coeff.set('W2','CH3_W2' ,epsilon=0.0 , sigma = 1.0)
polymer_brush.py:090  |  lj.pair_coeff.set('W2','SolvTail' ,epsilon=0.0 , sigma = 1.0)
polymer_brush.py:091  |  lj.pair_coeff.set('A','C' ,epsilon=0.0 , sigma=1.0 , alpha=0.0)
polymer_brush.py:093  |  slj = pair.slj(r_cut= 1.3)
notice(2): Notice: slj set d_max=2.0
polymer_brush.py:094  |  slj.set_params(mode="shift")
pair.py:886  |          pair.set_params(self, mode=mode);
polymer_brush.py:095  |  slj.pair_coeff.set('W2','Solvent', epsilon = 1.0 , sigma =1.25 ,r_cut =1.25* 2**(1.0/6.0))
polymer_brush.py:096  |  slj.pair_coeff.set('W1','Solvent', epsilon = 1.0 , sigma =1.25 ,r_cut =1.25* 2**(1.0/6.0))
polymer_brush.py:097  |  slj.pair_coeff.set('Solvent','Solvent', epsilon = 0, sigma = 1.0)
polymer_brush.py:098  |  slj.pair_coeff.set('Solvent','B', epsilon = 0, sigma = 1.0)
polymer_brush.py:099  |  slj.pair_coeff.set('Solvent','C', epsilon = 0, sigma = 1.0)
polymer_brush.py:100  |  slj.pair_coeff.set('Solvent','CH3_W1', epsilon = 0, sigma = 1.0)
polymer_brush.py:101  |  slj.pair_coeff.set('Solvent','CH3_W2', epsilon = 0, sigma = 1.0)
polymer_brush.py:102  |  slj.pair_coeff.set('Solvent','SolvTail', epsilon = 0, sigma = 1.0)
polymer_brush.py:103  |  slj.pair_coeff.set('W1','W2', epsilon = 0 , sigma =1.0)
polymer_brush.py:104  |  slj.pair_coeff.set('W1','W1', epsilon = 0 , sigma =1.0)
polymer_brush.py:105  |  slj.pair_coeff.set('W2','W2', epsilon = 0 , sigma =1.0)
polymer_brush.py:106  |  slj.pair_coeff.set('W1','B', epsilon = 1.0 , sigma =1.25 ,r_cut =1.25* 2**(1.0/6.0))
polymer_brush.py:107  |  slj.pair_coeff.set('W1','C', epsilon = 1.0 , sigma =1.25 ,r_cut =1.25* 2**(1.0/6.0))
polymer_brush.py:108  |  slj.pair_coeff.set('W2','B', epsilon = 1.0 , sigma =1.25 ,r_cut =1.25* 2**(1.0/6.0))
polymer_brush.py:109  |  slj.pair_coeff.set('W2','C', epsilon = 1.0 , sigma =1.25 ,r_cut =1.25* 2**(1.0/6.0))
polymer_brush.py:110  |  slj.pair_coeff.set('W1','CH3_W1', epsilon = 1.0 , sigma =1.25 ,r_cut =1.25* 2**(1.0/6.0))
polymer_brush.py:111  |  slj.pair_coeff.set('W1','CH3_W2', epsilon = 1.0 , sigma =1.25 ,r_cut =1.25* 2**(1.0/6.0))
polymer_brush.py:112  |  slj.pair_coeff.set('W2','CH3_W1', epsilon = 1.0 , sigma =1.25 ,r_cut =1.25* 2**(1.0/6.0))
polymer_brush.py:113  |  slj.pair_coeff.set('W2','CH3_W2', epsilon = 1.0 , sigma =1.25 ,r_cut =1.25* 2**(1.0/6.0))
polymer_brush.py:114  |  slj.pair_coeff.set('W1','SolvTail', epsilon = 1.0 , sigma =1.25 ,r_cut =1.25* 2**(1.0/6.0))
polymer_brush.py:115  |  slj.pair_coeff.set('W2','SolvTail', epsilon = 1.0 , sigma =1.25 ,r_cut =1.25* 2**(1.0/6.0))
polymer_brush.py:116  |  slj.pair_coeff.set('B','B', epsilon = 0, sigma = 1.0)
polymer_brush.py:117  |  slj.pair_coeff.set('C','C', epsilon = 0, sigma = 1.0)
polymer_brush.py:118  |  slj.pair_coeff.set('B','C', epsilon = 0, sigma = 1.0)
polymer_brush.py:119  |  slj.pair_coeff.set('B','CH3_W1', epsilon = 0, sigma = 1.0)
polymer_brush.py:120  |  slj.pair_coeff.set('B','CH3_W2', epsilon = 0, sigma = 1.0)
polymer_brush.py:121  |  slj.pair_coeff.set('B','SolvTail', epsilon = 0, sigma = 1.0)
polymer_brush.py:122  |  slj.pair_coeff.set('C','CH3_W1', epsilon = 0, sigma = 1.0)
polymer_brush.py:123  |  slj.pair_coeff.set('C','CH3_W2', epsilon = 0, sigma = 1.0)
polymer_brush.py:124  |  slj.pair_coeff.set('C','SolvTail', epsilon = 0, sigma = 1.0)
polymer_brush.py:125  |  slj.pair_coeff.set('CH3_W1','CH3_W1', epsilon = 0, sigma = 1.0)
polymer_brush.py:126  |  slj.pair_coeff.set('CH3_W1','CH3_W2', epsilon = 0, sigma = 1.0)
polymer_brush.py:127  |  slj.pair_coeff.set('CH3_W2','CH3_W2', epsilon = 0, sigma = 1.0)
polymer_brush.py:128  |  slj.pair_coeff.set('CH3_W1','SolvTail', epsilon = 0, sigma = 1.0)
polymer_brush.py:129  |  slj.pair_coeff.set('CH3_W2','SolvTail', epsilon = 0, sigma = 1.0)
polymer_brush.py:130  |  slj.pair_coeff.set('SolvTail','SolvTail', epsilon = 0, sigma = 1.0)
polymer_brush.py:133  |  harmonicO_O= bond.harmonic(name = 'O-O-bond')
polymer_brush.py:135  |  harmonicO_O.bond_coeff.set('oleic', k=9892.9362 , r0=0.5)
polymer_brush.py:138  |  harmonicO_O.bond_coeff.set('wall', k=9892.9362, r0=1.25)
polymer_brush.py:141  |  angleWO = angle.harmonic()
polymer_brush.py:142  |  angleWO.set_coeff('W-O' , k = 201.2878 , t0= 2.5307)
polymer_brush.py:143  |  angleWO.set_coeff('O-O' , k = 201.2878 , t0= 1.92)
polymer_brush.py:144  |  angleWO.set_coeff('kink' , k = 1000.2878 , t0= 2.8)
polymer_brush.py:150  |  dihedralField = dihedral.harmonic()
polymer_brush.py:151  |  dihedralField.set_coeff('DihedralW1' , k = 2.6838 , d=1 , n= 1)
polymer_brush.py:152  |  dihedralField.set_coeff('DihedralW2' , k = 1.4543 , d=-1 , n= 2)
polymer_brush.py:153  |  dihedralField.set_coeff('DihedralW3' , k =5.4347 , d=1 , n= 3)
polymer_brush.py:154  |  dihedralField.set_coeff('Dihedral1' , k =2.6838 , d=1 , n= 1)
polymer_brush.py:155  |  dihedralField.set_coeff('Dihedral2' , k = 1.4543 , d=-1 , n= 2)
polymer_brush.py:156  |  dihedralField.set_coeff('Dihedral3' , k =5.4347 , d=1 , n= 3)
polymer_brush.py:158  |  integrate.mode_standard(dt= 0.005)
polymer_brush.py:160  |  integrator=integrate.nve(group=typeAll , limit=0.01 )
polymer_brush.py:161  |  zeroer = update.zero_momentum(period = 1)
polymer_brush.py:164  |  run(200)
notice(2): -- Neighborlist exclusion statistics -- :
notice(2): Particles with 1 exclusions             : 20480
notice(2): Particles with 2 exclusions             : 90880
notice(2): Neighbors included by diameter          : yes
notice(2): Neighbors excluded when in the same body: no
** starting run **
Time 00:00:03 | Step 200 / 200 | TPS 122.038 | ETA 00:00:00
Average TPS: 122.035
---------
-- Neighborlist stats:
9 normal updates / 1 forced updates / 0 dangerous updates
n_neigh_min: 60 / n_neigh_max: 140 / n_neigh_avg: 110.135
shortest rebuild period: 21
-- Cell list stats:
Dimension: 20, 20, 3
n_min    : 8 / n_max: 168 / n_avg: 68.64
** run complete **
polymer_brush.py:165  |  zeroer.disable()
polymer_brush.py:167  |  integrator.disable()
polymer_brush.py:169  |  integrator=integrate.npt(group=typeAll , tau=1.0 , T= 1.0 , tauP = 1.2 , P = 0.00078 , x=False , y = False , z = True , rescale_all=True )
polymer_brush.py:172  |  run(5e2, profile=True, limit_hours=1)
** starting run **
Time 00:00:05 | Step 700 / 700 | TPS 269.459 | ETA 00:00:00
Average TPS: 269.455
Simulation:  1.8556s | 100.000% 
        Bond harmonic:      0.0288s |  1.551% 
                update bond table:  0.0170s |  0.913% 
                Self:               0.0118s |  0.637% 
        Harmonic Angle:     0.0444s |  2.392% 
        Harmonic Dihedral:  0.1405s |  7.572% 
        Integrate:          0.0918s |  4.946% 
                NPT step 1:  0.0188s |  1.016% 
                        Thermo:  0.0017s |  0.094% 
                        Self:    0.0171s |  0.921% 
                NPT step 2:  0.0387s |  2.084% 
                        Thermo:  0.0232s |  1.253% 
                        Self:    0.0154s |  0.831% 
                Net force:   0.0283s |  1.525% 
                Self:        0.0060s |  0.322% 
        Neighbor:           0.5840s | 31.472% 
                Cell:           0.0176s |  0.948% 
                        compute:  0.0040s |  0.215% 
                        init:     0.0123s |  0.664% 
                MPI allreduce:  0.0028s |  0.153% 
                compute:        0.3201s | 17.250% 
                filter:         0.2003s | 10.793% 
                head-list:      0.0375s |  2.024% 
                update-ex:      0.0013s |  0.072% 
                Self:           0.0043s |  0.232% 
        Pair lj:            0.2879s | 15.514% 
        Pair slj:           0.3238s | 17.450% 
        SFCPack:            0.0004s |  0.023% 
        comm_ghost_exch:    0.0582s |  3.136% 
                MPI send/recv:  0.0224s |  1.205% 5.15587 GiB/s 
                Self:           0.0358s |  1.932% 
        comm_ghost_update:  0.1359s |  7.322% 
                MPI send/recv:  0.0751s |  4.047% 6.55394 GiB/s 
                pack:           0.0413s |  2.225% 
                unpack:         0.0132s |  0.712% 
                Self:           0.0063s |  0.337% 
        comm_migrate:       0.1182s |  6.371% 
                MPI send/recv:  0.0106s |  0.569% 5.81873 MiB/s 
                angle:          0.0267s |  1.440% 
                        MPI send/recv:  0.0083s |  0.447% 3.77293 MiB/s 
                        Self:           0.0184s |  0.993% 
                bond:           0.0253s |  1.362% 
                        MPI send/recv:  0.0069s |  0.374% 2.80941 MiB/s 
                        Self:           0.0183s |  0.988% 
                dihedral:       0.0399s |  2.151% 
                        MPI send/recv:  0.0136s |  0.732% 9.37970 MiB/s 
                        Self:           0.0263s |  1.419% 
                pack:           0.0073s |  0.392% 
                unpack:         0.0012s |  0.063% 
                Self:           0.0073s |  0.394% 
        dist-check:         0.0159s |  0.858% 
        Self:               0.0258s |  1.393% 
---------
-- Neighborlist stats:
66 normal updates / 3 forced updates / 0 dangerous updates
n_neigh_min: 0 / n_neigh_max: 144 / n_neigh_avg: 109.72691
shortest rebuild period: 5
-- Cell list stats:
Dimension: 20, 20, 3
n_min    : 8 / n_max: 171 / n_avg: 66.67250
** run complete **










################################################################
Running: mpirun -n 8 python polymer_brush.py --mode=gpu --user=8
HOOMD-blue 1.3.3-unknown CUDA (7.5) SINGLE MPI SSE SSE2 SSE3 
Compiled: 03/06/2016
Copyright 2009-2016 The Regents of the University of Michigan.

All publications and presentations based on HOOMD-blue, including any reports
or published results obtained, in whole or in part, with HOOMD-blue, will
acknowledge its use according to the terms posted at the time of submission on:
http://codeblue.umich.edu/hoomd-blue/citations.html
-----
You are using HOOMD-blue. Read and cite the following:
* J A Anderson, C D Lorenz, and A Travesset. "General purpose molecular dynamics
  simulations fully implemented on graphics processing units", Journal of
  Computational Physics 227 (2008) 5342--5359
and
* J Glaser, T D Nguyen, J A Anderson, P Liu, F Spiga, J A Millan, D C Morse, and
  S C Glotzer. "Strong scaling of general-purpose molecular dynamics simulations
  on GPUs", Computer Physics Communications 192 (2015) 97--107
and
* http://codeblue.umich.edu/hoomd-blue
You can save these citations to file using cite.save().
-----
notice(2): This system is not compute exclusive, using local rank to select GPUs
notice(2): Unable to identify node local rank information
notice(2): Using global rank to select GPUs
HOOMD-blue is running on the following GPU(s):
Rank 0:  [0]  Tesla P100-PCIE-16GB  56 SM_6.0 @ 1.33 GHz, 16276 MiB DRAM
Rank 1:  [1]  Tesla P100-PCIE-16GB  56 SM_6.0 @ 1.33 GHz, 16276 MiB DRAM
Rank 2:  [2]  Tesla P100-PCIE-16GB  56 SM_6.0 @ 1.33 GHz, 16276 MiB DRAM
Rank 3:  [3]  Tesla P100-PCIE-16GB  56 SM_6.0 @ 1.33 GHz, 16276 MiB DRAM
Rank 4:  [0]  Tesla P100-PCIE-16GB  56 SM_6.0 @ 1.33 GHz, 16276 MiB DRAM
Rank 5:  [1]  Tesla P100-PCIE-16GB  56 SM_6.0 @ 1.33 GHz, 16276 MiB DRAM
Rank 6:  [2]  Tesla P100-PCIE-16GB  56 SM_6.0 @ 1.33 GHz, 16276 MiB DRAM
Rank 7:  [3]  Tesla P100-PCIE-16GB  56 SM_6.0 @ 1.33 GHz, 16276 MiB DRAM
polymer_brush.py:012  |  system=init.read_xml(filename='init.xml')
notice(2): Reading init.xml...
notice(2): --- hoomd_xml file read summary
notice(2): 1740 positions at timestep 0
notice(2): 1740 velocities
notice(2): 1740 masses
notice(2): 1740 diameters
notice(2): 5 particle types
notice(2): 1740 particle body values
notice(2): 1580 bonds
notice(2): 1420 angles
notice(2): 3780 dihedrals
notice(2): 1740 charges
HOOMD-blue is using domain decomposition: n_x = 1 n_y = 2 n_z = 4.
1 x 2 x 4 local grid on 1 nodes
notice(2): Group "all" created containing 1740 particles
polymer_brush.py:018  |  system.replicate(nx=rep, ny=rep, nz=1)
polymer_brush.py:019  |  typeW1=group.type('W1')
notice(2): Group "type W1" created containing 3840 particles
polymer_brush.py:020  |  typeW2=group.type('W2')
*Warning*: W2 does not exist in the system, creating an empty group
notice(2): Group "type W2" created containing 0 particles
notice(2): Group "Wall" created containing 3840 particles
polymer_brush.py:022  |  typeB= group.type('B')
notice(2): Group "type B" created containing 65280 particles
polymer_brush.py:023  |  typeSolvBackBone = group.type('Solvent')
notice(2): Group "type Solvent" created containing 25600 particles
polymer_brush.py:024  |  typeC= group.type('C')
*Warning*: C does not exist in the system, creating an empty group
notice(2): Group "type C" created containing 0 particles
polymer_brush.py:025  |  typeCH3_W1=group.type('CH3_W1')
notice(2): Group "type CH3_W1" created containing 3840 particles
polymer_brush.py:026  |  typeCH3_W2=group.type('CH3_W2')
*Warning*: CH3_W2 does not exist in the system, creating an empty group
notice(2): Group "type CH3_W2" created containing 0 particles
polymer_brush.py:027  |  typeSolvTail=group.type('SolvTail')
notice(2): Group "type SolvTail" created containing 12800 particles
notice(2): Group "BCH3-particles" created containing 69120 particles
notice(2): Group "CCH3-particles" created containing 0 particles
notice(2): Group "all-solvent" created containing 38400 particles
notice(2): Group "bc-particles" created containing 69120 particles
notice(2): Group "typeAll" created containing 107520 particles
notice(2): Group "typeNPT" created containing 111360 particles
Number of polymeric particles 107520
polymer_brush.py:044  |  lj = pair.lj(r_cut=3.3)
nlist.py:1051  |          globals.neighbor_list = cell();
polymer_brush.py:052  |  lj.pair_coeff.set('Solvent','W1' ,epsilon=0 , sigma=1.3144)
polymer_brush.py:053  |  lj.pair_coeff.set('Solvent','W2' ,epsilon=0 , sigma=1.3144)
polymer_brush.py:054  |  lj.pair_coeff.set('Solvent','Solvent' ,epsilon=1.0*tether_bulk , sigma=1.3144)
polymer_brush.py:055  |  lj.pair_coeff.set('Solvent','B' ,epsilon=tether_bulk , sigma=1.3144)
polymer_brush.py:056  |  lj.pair_coeff.set('Solvent','C' ,epsilon=tether_bulk , sigma=1.3144)
polymer_brush.py:057  |  lj.pair_coeff.set('Solvent','CH3_W1' ,epsilon=bulk_tails , sigma=1.3144)
polymer_brush.py:058  |  lj.pair_coeff.set('Solvent','CH3_W2' ,epsilon=bulk_tails , sigma=1.3144)
polymer_brush.py:059  |  lj.pair_coeff.set('Solvent','SolvTail' ,epsilon=bulk_tails , sigma=1.3144)
polymer_brush.py:060  |  lj.pair_coeff.set('B','B' ,epsilon=tether_bulk , sigma=1.3144)
polymer_brush.py:061  |  lj.pair_coeff.set('C','C' ,epsilon=tether_bulk , sigma=1.3144)
polymer_brush.py:062  |  lj.pair_coeff.set('B','C' ,epsilon=tether_bulk , sigma=1.3144)
polymer_brush.py:063  |  lj.pair_coeff.set('B','CH3_W1' ,epsilon=bulk_tails , sigma=1.3144)
polymer_brush.py:064  |  lj.pair_coeff.set('B','CH3_W2' ,epsilon=bulk_tails , sigma=1.3144)
polymer_brush.py:065  |  lj.pair_coeff.set('C','CH3_W1' ,epsilon=bulk_tails , sigma=1.3144)
polymer_brush.py:066  |  lj.pair_coeff.set('C','CH3_W2' ,epsilon=bulk_tails , sigma=1.3144)
polymer_brush.py:067  |  lj.pair_coeff.set('CH3_W1','CH3_W1' ,epsilon=tails , sigma=1.3144)
polymer_brush.py:068  |  lj.pair_coeff.set('CH3_W1','CH3_W2' ,epsilon=tails , sigma=1.3144)
polymer_brush.py:069  |  lj.pair_coeff.set('CH3_W2' ,'CH3_W2' ,epsilon=tails , sigma=1.3144)
polymer_brush.py:071  |  lj.pair_coeff.set('B','SolvTail' ,epsilon=bulk_tails , sigma=1.3144)
polymer_brush.py:072  |  lj.pair_coeff.set('C','SolvTail' ,epsilon=bulk_tails , sigma=1.3144)
polymer_brush.py:073  |  lj.pair_coeff.set('CH3_W1','SolvTail' ,epsilon=tails , sigma=1.3144)
polymer_brush.py:074  |  lj.pair_coeff.set('CH3_W2','SolvTail' ,epsilon=tails , sigma=1.3144)
polymer_brush.py:075  |  lj.pair_coeff.set('SolvTail' ,'SolvTail' ,epsilon=tails , sigma=1.3144)
polymer_brush.py:077  |  lj.pair_coeff.set('B','C' ,epsilon=0.01 , sigma=2.62 , alpha=0.0)
polymer_brush.py:078  |  lj.pair_coeff.set('W1','W2' ,epsilon=0.0 , sigma=1.0)
polymer_brush.py:079  |  lj.pair_coeff.set('W1','W1' ,epsilon=0.0 , sigma=1.0)
polymer_brush.py:080  |  lj.pair_coeff.set('W1','B' ,epsilon=0.0 , sigma = 1.0)
polymer_brush.py:081  |  lj.pair_coeff.set('W1','C' ,epsilon=0.0 , sigma = 1.0)
polymer_brush.py:082  |  lj.pair_coeff.set('W2','W2' ,epsilon=0.0 , sigma=1.0)
polymer_brush.py:083  |  lj.pair_coeff.set('W2','B' ,epsilon=0.0 , sigma = 1.0)
polymer_brush.py:084  |  lj.pair_coeff.set('W2','C' ,epsilon=0.0 , sigma = 1.0)
polymer_brush.py:085  |  lj.pair_coeff.set('W1','CH3_W1' ,epsilon=0.0 , sigma = 1.0)
polymer_brush.py:086  |  lj.pair_coeff.set('W1','CH3_W2' ,epsilon=0.0 , sigma = 1.0)
polymer_brush.py:087  |  lj.pair_coeff.set('W1','SolvTail' ,epsilon=0.0 , sigma = 1.0)
polymer_brush.py:088  |  lj.pair_coeff.set('W2','CH3_W1' ,epsilon=0.0 , sigma = 1.0)
polymer_brush.py:089  |  lj.pair_coeff.set('W2','CH3_W2' ,epsilon=0.0 , sigma = 1.0)
polymer_brush.py:090  |  lj.pair_coeff.set('W2','SolvTail' ,epsilon=0.0 , sigma = 1.0)
polymer_brush.py:091  |  lj.pair_coeff.set('A','C' ,epsilon=0.0 , sigma=1.0 , alpha=0.0)
polymer_brush.py:093  |  slj = pair.slj(r_cut= 1.3)
notice(2): Notice: slj set d_max=2.0
polymer_brush.py:094  |  slj.set_params(mode="shift")
pair.py:886  |          pair.set_params(self, mode=mode);
polymer_brush.py:095  |  slj.pair_coeff.set('W2','Solvent', epsilon = 1.0 , sigma =1.25 ,r_cut =1.25* 2**(1.0/6.0))
polymer_brush.py:096  |  slj.pair_coeff.set('W1','Solvent', epsilon = 1.0 , sigma =1.25 ,r_cut =1.25* 2**(1.0/6.0))
polymer_brush.py:097  |  slj.pair_coeff.set('Solvent','Solvent', epsilon = 0, sigma = 1.0)
polymer_brush.py:098  |  slj.pair_coeff.set('Solvent','B', epsilon = 0, sigma = 1.0)
polymer_brush.py:099  |  slj.pair_coeff.set('Solvent','C', epsilon = 0, sigma = 1.0)
polymer_brush.py:100  |  slj.pair_coeff.set('Solvent','CH3_W1', epsilon = 0, sigma = 1.0)
polymer_brush.py:101  |  slj.pair_coeff.set('Solvent','CH3_W2', epsilon = 0, sigma = 1.0)
polymer_brush.py:102  |  slj.pair_coeff.set('Solvent','SolvTail', epsilon = 0, sigma = 1.0)
polymer_brush.py:103  |  slj.pair_coeff.set('W1','W2', epsilon = 0 , sigma =1.0)
polymer_brush.py:104  |  slj.pair_coeff.set('W1','W1', epsilon = 0 , sigma =1.0)
polymer_brush.py:105  |  slj.pair_coeff.set('W2','W2', epsilon = 0 , sigma =1.0)
polymer_brush.py:106  |  slj.pair_coeff.set('W1','B', epsilon = 1.0 , sigma =1.25 ,r_cut =1.25* 2**(1.0/6.0))
polymer_brush.py:107  |  slj.pair_coeff.set('W1','C', epsilon = 1.0 , sigma =1.25 ,r_cut =1.25* 2**(1.0/6.0))
polymer_brush.py:108  |  slj.pair_coeff.set('W2','B', epsilon = 1.0 , sigma =1.25 ,r_cut =1.25* 2**(1.0/6.0))
polymer_brush.py:109  |  slj.pair_coeff.set('W2','C', epsilon = 1.0 , sigma =1.25 ,r_cut =1.25* 2**(1.0/6.0))
polymer_brush.py:110  |  slj.pair_coeff.set('W1','CH3_W1', epsilon = 1.0 , sigma =1.25 ,r_cut =1.25* 2**(1.0/6.0))
polymer_brush.py:111  |  slj.pair_coeff.set('W1','CH3_W2', epsilon = 1.0 , sigma =1.25 ,r_cut =1.25* 2**(1.0/6.0))
polymer_brush.py:112  |  slj.pair_coeff.set('W2','CH3_W1', epsilon = 1.0 , sigma =1.25 ,r_cut =1.25* 2**(1.0/6.0))
polymer_brush.py:113  |  slj.pair_coeff.set('W2','CH3_W2', epsilon = 1.0 , sigma =1.25 ,r_cut =1.25* 2**(1.0/6.0))
polymer_brush.py:114  |  slj.pair_coeff.set('W1','SolvTail', epsilon = 1.0 , sigma =1.25 ,r_cut =1.25* 2**(1.0/6.0))
polymer_brush.py:115  |  slj.pair_coeff.set('W2','SolvTail', epsilon = 1.0 , sigma =1.25 ,r_cut =1.25* 2**(1.0/6.0))
polymer_brush.py:116  |  slj.pair_coeff.set('B','B', epsilon = 0, sigma = 1.0)
polymer_brush.py:117  |  slj.pair_coeff.set('C','C', epsilon = 0, sigma = 1.0)
polymer_brush.py:118  |  slj.pair_coeff.set('B','C', epsilon = 0, sigma = 1.0)
polymer_brush.py:119  |  slj.pair_coeff.set('B','CH3_W1', epsilon = 0, sigma = 1.0)
polymer_brush.py:120  |  slj.pair_coeff.set('B','CH3_W2', epsilon = 0, sigma = 1.0)
polymer_brush.py:121  |  slj.pair_coeff.set('B','SolvTail', epsilon = 0, sigma = 1.0)
polymer_brush.py:122  |  slj.pair_coeff.set('C','CH3_W1', epsilon = 0, sigma = 1.0)
polymer_brush.py:123  |  slj.pair_coeff.set('C','CH3_W2', epsilon = 0, sigma = 1.0)
polymer_brush.py:124  |  slj.pair_coeff.set('C','SolvTail', epsilon = 0, sigma = 1.0)
polymer_brush.py:125  |  slj.pair_coeff.set('CH3_W1','CH3_W1', epsilon = 0, sigma = 1.0)
polymer_brush.py:126  |  slj.pair_coeff.set('CH3_W1','CH3_W2', epsilon = 0, sigma = 1.0)
polymer_brush.py:127  |  slj.pair_coeff.set('CH3_W2','CH3_W2', epsilon = 0, sigma = 1.0)
polymer_brush.py:128  |  slj.pair_coeff.set('CH3_W1','SolvTail', epsilon = 0, sigma = 1.0)
polymer_brush.py:129  |  slj.pair_coeff.set('CH3_W2','SolvTail', epsilon = 0, sigma = 1.0)
polymer_brush.py:130  |  slj.pair_coeff.set('SolvTail','SolvTail', epsilon = 0, sigma = 1.0)
polymer_brush.py:133  |  harmonicO_O= bond.harmonic(name = 'O-O-bond')
polymer_brush.py:135  |  harmonicO_O.bond_coeff.set('oleic', k=9892.9362 , r0=0.5)
polymer_brush.py:138  |  harmonicO_O.bond_coeff.set('wall', k=9892.9362, r0=1.25)
polymer_brush.py:141  |  angleWO = angle.harmonic()
polymer_brush.py:142  |  angleWO.set_coeff('W-O' , k = 201.2878 , t0= 2.5307)
polymer_brush.py:143  |  angleWO.set_coeff('O-O' , k = 201.2878 , t0= 1.92)
polymer_brush.py:144  |  angleWO.set_coeff('kink' , k = 1000.2878 , t0= 2.8)
polymer_brush.py:150  |  dihedralField = dihedral.harmonic()
polymer_brush.py:151  |  dihedralField.set_coeff('DihedralW1' , k = 2.6838 , d=1 , n= 1)
polymer_brush.py:152  |  dihedralField.set_coeff('DihedralW2' , k = 1.4543 , d=-1 , n= 2)
polymer_brush.py:153  |  dihedralField.set_coeff('DihedralW3' , k =5.4347 , d=1 , n= 3)
polymer_brush.py:154  |  dihedralField.set_coeff('Dihedral1' , k =2.6838 , d=1 , n= 1)
polymer_brush.py:155  |  dihedralField.set_coeff('Dihedral2' , k = 1.4543 , d=-1 , n= 2)
polymer_brush.py:156  |  dihedralField.set_coeff('Dihedral3' , k =5.4347 , d=1 , n= 3)
polymer_brush.py:158  |  integrate.mode_standard(dt= 0.005)
polymer_brush.py:160  |  integrator=integrate.nve(group=typeAll , limit=0.01 )
polymer_brush.py:161  |  zeroer = update.zero_momentum(period = 1)
polymer_brush.py:164  |  run(200)
notice(2): -- Neighborlist exclusion statistics -- :
notice(2): Particles with 1 exclusions             : 20480
notice(2): Particles with 2 exclusions             : 90880
notice(2): Neighbors included by diameter          : yes
notice(2): Neighbors excluded when in the same body: no
** starting run **
Time 00:00:06 | Step 200 / 200 | TPS 101.123 | ETA 00:00:00
Average TPS: 101.12
---------
-- Neighborlist stats:
9 normal updates / 1 forced updates / 0 dangerous updates
n_neigh_min: 60 / n_neigh_max: 139 / n_neigh_avg: 110.107
shortest rebuild period: 21
-- Cell list stats:
Dimension: 20, 11, 3
n_min    : 8 / n_max: 189 / n_avg: 74.4727
** run complete **
polymer_brush.py:165  |  zeroer.disable()
polymer_brush.py:167  |  integrator.disable()
polymer_brush.py:169  |  integrator=integrate.npt(group=typeAll , tau=1.0 , T= 1.0 , tauP = 1.2 , P = 0.00078 , x=False , y = False , z = True , rescale_all=True )
polymer_brush.py:172  |  run(5e2, profile=True, limit_hours=1)
** starting run **
Time 00:00:09 | Step 700 / 700 | TPS 218.414 | ETA 00:00:00
Average TPS: 218.411
Simulation:  2.2893s | 100.000% 
        Bond harmonic:      0.0594s |  2.594% 
                update bond table:  0.0314s |  1.371% 
                Self:               0.0280s |  1.223% 
        Harmonic Angle:     0.0961s |  4.197% 
        Harmonic Dihedral:  0.1253s |  5.474% 
        Integrate:          0.3550s | 15.505% 
                NPT step 1:  0.0249s |  1.086% 
                        Thermo:  0.0055s |  0.240% 
                        Self:    0.0194s |  0.846% 
                NPT step 2:  0.2428s | 10.607% 
                        Thermo:  0.0702s |  3.067% 
                        Self:    0.1726s |  7.540% 
                Net force:   0.0774s |  3.381% 
                Self:        0.0099s |  0.432% 
        Neighbor:           0.4001s | 17.475% 
                Cell:           0.0567s |  2.477% 
                        compute:  0.0195s |  0.854% 
                        init:     0.0328s |  1.432% 
                        Self:     0.0044s |  0.190% 
                MPI allreduce:  0.0281s |  1.226% 
                compute:        0.1925s |  8.406% 
                filter:         0.0627s |  2.739% 
                head-list:      0.0385s |  1.681% 
                update-ex:      0.0131s |  0.573% 
                Self:           0.0085s |  0.373% 
        Pair lj:            0.2245s |  9.809% 
        Pair slj:           0.2258s |  9.864% 
        SFCPack:            0.0005s |  0.023% 
        comm_ghost_exch:    0.1054s |  4.603% 
                MPI send/recv:  0.0387s |  1.691% 2.22683 GiB/s 
                Self:           0.0667s |  2.912% 
        comm_ghost_update:  0.2357s | 10.294% 
                MPI send/recv:  0.0829s |  3.619% 5.45995 GiB/s 
                pack:           0.0913s |  3.989% 
                unpack:         0.0539s |  2.355% 
                Self:           0.0076s |  0.331% 
        comm_migrate:       0.2953s | 12.899% 
                MPI send/recv:  0.0088s |  0.385% 71.47060 MiB/s 
                angle:          0.0781s |  3.413% 
                        MPI send/recv:  0.0235s |  1.028% 28.67927 MiB/s 
                        Self:           0.0546s |  2.385% 
                bond:           0.0716s |  3.127% 
                        MPI send/recv:  0.0123s |  0.538% 24.76763 MiB/s 
                        Self:           0.0593s |  2.589% 
                dihedral:       0.0931s |  4.066% 
                        MPI send/recv:  0.0288s |  1.257% 124.37617 MiB/s 
                        Self:           0.0643s |  2.808% 
                pack:           0.0126s |  0.551% 
                unpack:         0.0083s |  0.364% 
                Self:           0.0227s |  0.993% 
        dist-check:         0.1132s |  4.943% 
        Self:               0.0531s |  2.322% 
---------
-- Neighborlist stats:
65 normal updates / 3 forced updates / 0 dangerous updates
n_neigh_min: 39 / n_neigh_max: 143 / n_neigh_avg: 109.97953
shortest rebuild period: 6
-- Cell list stats:
Dimension: 20, 11, 3
n_min    : 8 / n_max: 180 / n_avg: 72.41061
** run complete **










################################################################
Running: mpirun -n 16 python polymer_brush.py --mode=gpu --user=8
HOOMD-blue 1.3.3-unknown CUDA (7.5) SINGLE MPI SSE SSE2 SSE3 
Compiled: 03/06/2016
Copyright 2009-2016 The Regents of the University of Michigan.

All publications and presentations based on HOOMD-blue, including any reports
or published results obtained, in whole or in part, with HOOMD-blue, will
acknowledge its use according to the terms posted at the time of submission on:
http://codeblue.umich.edu/hoomd-blue/citations.html
-----
You are using HOOMD-blue. Read and cite the following:
* J A Anderson, C D Lorenz, and A Travesset. "General purpose molecular dynamics
  simulations fully implemented on graphics processing units", Journal of
  Computational Physics 227 (2008) 5342--5359
and
* J Glaser, T D Nguyen, J A Anderson, P Liu, F Spiga, J A Millan, D C Morse, and
  S C Glotzer. "Strong scaling of general-purpose molecular dynamics simulations
  on GPUs", Computer Physics Communications 192 (2015) 97--107
and
* http://codeblue.umich.edu/hoomd-blue
You can save these citations to file using cite.save().
-----
notice(2): This system is not compute exclusive, using local rank to select GPUs
notice(2): Unable to identify node local rank information
notice(2): Using global rank to select GPUs
HOOMD-blue is running on the following GPU(s):
Rank 0:  [0]  Tesla P100-PCIE-16GB  56 SM_6.0 @ 1.33 GHz, 16276 MiB DRAM
Rank 1:  [1]  Tesla P100-PCIE-16GB  56 SM_6.0 @ 1.33 GHz, 16276 MiB DRAM
Rank 2:  [2]  Tesla P100-PCIE-16GB  56 SM_6.0 @ 1.33 GHz, 16276 MiB DRAM
Rank 3:  [3]  Tesla P100-PCIE-16GB  56 SM_6.0 @ 1.33 GHz, 16276 MiB DRAM
Rank 4:  [0]  Tesla P100-PCIE-16GB  56 SM_6.0 @ 1.33 GHz, 16276 MiB DRAM
Rank 5:  [1]  Tesla P100-PCIE-16GB  56 SM_6.0 @ 1.33 GHz, 16276 MiB DRAM
Rank 6:  [2]  Tesla P100-PCIE-16GB  56 SM_6.0 @ 1.33 GHz, 16276 MiB DRAM
Rank 7:  [3]  Tesla P100-PCIE-16GB  56 SM_6.0 @ 1.33 GHz, 16276 MiB DRAM
Rank 8:  [0]  Tesla P100-PCIE-16GB  56 SM_6.0 @ 1.33 GHz, 16276 MiB DRAM
Rank 9:  [1]  Tesla P100-PCIE-16GB  56 SM_6.0 @ 1.33 GHz, 16276 MiB DRAM
Rank 10:  [2]  Tesla P100-PCIE-16GB  56 SM_6.0 @ 1.33 GHz, 16276 MiB DRAM
Rank 11:  [3]  Tesla P100-PCIE-16GB  56 SM_6.0 @ 1.33 GHz, 16276 MiB DRAM
Rank 12:  [0]  Tesla P100-PCIE-16GB  56 SM_6.0 @ 1.33 GHz, 16276 MiB DRAM
Rank 13:  [1]  Tesla P100-PCIE-16GB  56 SM_6.0 @ 1.33 GHz, 16276 MiB DRAM
Rank 14:  [2]  Tesla P100-PCIE-16GB  56 SM_6.0 @ 1.33 GHz, 16276 MiB DRAM
Rank 15:  [3]  Tesla P100-PCIE-16GB  56 SM_6.0 @ 1.33 GHz, 16276 MiB DRAM
polymer_brush.py:012  |  system=init.read_xml(filename='init.xml')
notice(2): Reading init.xml...
notice(2): --- hoomd_xml file read summary
notice(2): 1740 positions at timestep 0
notice(2): 1740 velocities
notice(2): 1740 masses
notice(2): 1740 diameters
notice(2): 5 particle types
notice(2): 1740 particle body values
notice(2): 1580 bonds
notice(2): 1420 angles
notice(2): 3780 dihedrals
notice(2): 1740 charges
HOOMD-blue is using domain decomposition: n_x = 2 n_y = 2 n_z = 4.
2 x 2 x 4 local grid on 1 nodes
notice(2): Group "all" created containing 1740 particles
polymer_brush.py:018  |  system.replicate(nx=rep, ny=rep, nz=1)
polymer_brush.py:019  |  typeW1=group.type('W1')
notice(2): Group "type W1" created containing 3840 particles
polymer_brush.py:020  |  typeW2=group.type('W2')
*Warning*: W2 does not exist in the system, creating an empty group
notice(2): Group "type W2" created containing 0 particles
notice(2): Group "Wall" created containing 3840 particles
polymer_brush.py:022  |  typeB= group.type('B')
notice(2): Group "type B" created containing 65280 particles
polymer_brush.py:023  |  typeSolvBackBone = group.type('Solvent')
notice(2): Group "type Solvent" created containing 25600 particles
polymer_brush.py:024  |  typeC= group.type('C')
*Warning*: C does not exist in the system, creating an empty group
notice(2): Group "type C" created containing 0 particles
polymer_brush.py:025  |  typeCH3_W1=group.type('CH3_W1')
notice(2): Group "type CH3_W1" created containing 3840 particles
polymer_brush.py:026  |  typeCH3_W2=group.type('CH3_W2')
*Warning*: CH3_W2 does not exist in the system, creating an empty group
notice(2): Group "type CH3_W2" created containing 0 particles
polymer_brush.py:027  |  typeSolvTail=group.type('SolvTail')
notice(2): Group "type SolvTail" created containing 12800 particles
notice(2): Group "BCH3-particles" created containing 69120 particles
notice(2): Group "CCH3-particles" created containing 0 particles
notice(2): Group "all-solvent" created containing 38400 particles
notice(2): Group "bc-particles" created containing 69120 particles
notice(2): Group "typeAll" created containing 107520 particles
notice(2): Group "typeNPT" created containing 111360 particles
Number of polymeric particles 107520
polymer_brush.py:044  |  lj = pair.lj(r_cut=3.3)
nlist.py:1051  |          globals.neighbor_list = cell();
polymer_brush.py:052  |  lj.pair_coeff.set('Solvent','W1' ,epsilon=0 , sigma=1.3144)
polymer_brush.py:053  |  lj.pair_coeff.set('Solvent','W2' ,epsilon=0 , sigma=1.3144)
polymer_brush.py:054  |  lj.pair_coeff.set('Solvent','Solvent' ,epsilon=1.0*tether_bulk , sigma=1.3144)
polymer_brush.py:055  |  lj.pair_coeff.set('Solvent','B' ,epsilon=tether_bulk , sigma=1.3144)
polymer_brush.py:056  |  lj.pair_coeff.set('Solvent','C' ,epsilon=tether_bulk , sigma=1.3144)
polymer_brush.py:057  |  lj.pair_coeff.set('Solvent','CH3_W1' ,epsilon=bulk_tails , sigma=1.3144)
polymer_brush.py:058  |  lj.pair_coeff.set('Solvent','CH3_W2' ,epsilon=bulk_tails , sigma=1.3144)
polymer_brush.py:059  |  lj.pair_coeff.set('Solvent','SolvTail' ,epsilon=bulk_tails , sigma=1.3144)
polymer_brush.py:060  |  lj.pair_coeff.set('B','B' ,epsilon=tether_bulk , sigma=1.3144)
polymer_brush.py:061  |  lj.pair_coeff.set('C','C' ,epsilon=tether_bulk , sigma=1.3144)
polymer_brush.py:062  |  lj.pair_coeff.set('B','C' ,epsilon=tether_bulk , sigma=1.3144)
polymer_brush.py:063  |  lj.pair_coeff.set('B','CH3_W1' ,epsilon=bulk_tails , sigma=1.3144)
polymer_brush.py:064  |  lj.pair_coeff.set('B','CH3_W2' ,epsilon=bulk_tails , sigma=1.3144)
polymer_brush.py:065  |  lj.pair_coeff.set('C','CH3_W1' ,epsilon=bulk_tails , sigma=1.3144)
polymer_brush.py:066  |  lj.pair_coeff.set('C','CH3_W2' ,epsilon=bulk_tails , sigma=1.3144)
polymer_brush.py:067  |  lj.pair_coeff.set('CH3_W1','CH3_W1' ,epsilon=tails , sigma=1.3144)
polymer_brush.py:068  |  lj.pair_coeff.set('CH3_W1','CH3_W2' ,epsilon=tails , sigma=1.3144)
polymer_brush.py:069  |  lj.pair_coeff.set('CH3_W2' ,'CH3_W2' ,epsilon=tails , sigma=1.3144)
polymer_brush.py:071  |  lj.pair_coeff.set('B','SolvTail' ,epsilon=bulk_tails , sigma=1.3144)
polymer_brush.py:072  |  lj.pair_coeff.set('C','SolvTail' ,epsilon=bulk_tails , sigma=1.3144)
polymer_brush.py:073  |  lj.pair_coeff.set('CH3_W1','SolvTail' ,epsilon=tails , sigma=1.3144)
polymer_brush.py:074  |  lj.pair_coeff.set('CH3_W2','SolvTail' ,epsilon=tails , sigma=1.3144)
polymer_brush.py:075  |  lj.pair_coeff.set('SolvTail' ,'SolvTail' ,epsilon=tails , sigma=1.3144)
polymer_brush.py:077  |  lj.pair_coeff.set('B','C' ,epsilon=0.01 , sigma=2.62 , alpha=0.0)
polymer_brush.py:078  |  lj.pair_coeff.set('W1','W2' ,epsilon=0.0 , sigma=1.0)
polymer_brush.py:079  |  lj.pair_coeff.set('W1','W1' ,epsilon=0.0 , sigma=1.0)
polymer_brush.py:080  |  lj.pair_coeff.set('W1','B' ,epsilon=0.0 , sigma = 1.0)
polymer_brush.py:081  |  lj.pair_coeff.set('W1','C' ,epsilon=0.0 , sigma = 1.0)
polymer_brush.py:082  |  lj.pair_coeff.set('W2','W2' ,epsilon=0.0 , sigma=1.0)
polymer_brush.py:083  |  lj.pair_coeff.set('W2','B' ,epsilon=0.0 , sigma = 1.0)
polymer_brush.py:084  |  lj.pair_coeff.set('W2','C' ,epsilon=0.0 , sigma = 1.0)
polymer_brush.py:085  |  lj.pair_coeff.set('W1','CH3_W1' ,epsilon=0.0 , sigma = 1.0)
polymer_brush.py:086  |  lj.pair_coeff.set('W1','CH3_W2' ,epsilon=0.0 , sigma = 1.0)
polymer_brush.py:087  |  lj.pair_coeff.set('W1','SolvTail' ,epsilon=0.0 , sigma = 1.0)
polymer_brush.py:088  |  lj.pair_coeff.set('W2','CH3_W1' ,epsilon=0.0 , sigma = 1.0)
polymer_brush.py:089  |  lj.pair_coeff.set('W2','CH3_W2' ,epsilon=0.0 , sigma = 1.0)
polymer_brush.py:090  |  lj.pair_coeff.set('W2','SolvTail' ,epsilon=0.0 , sigma = 1.0)
polymer_brush.py:091  |  lj.pair_coeff.set('A','C' ,epsilon=0.0 , sigma=1.0 , alpha=0.0)
polymer_brush.py:093  |  slj = pair.slj(r_cut= 1.3)
notice(2): Notice: slj set d_max=2.0
polymer_brush.py:094  |  slj.set_params(mode="shift")
pair.py:886  |          pair.set_params(self, mode=mode);
polymer_brush.py:095  |  slj.pair_coeff.set('W2','Solvent', epsilon = 1.0 , sigma =1.25 ,r_cut =1.25* 2**(1.0/6.0))
polymer_brush.py:096  |  slj.pair_coeff.set('W1','Solvent', epsilon = 1.0 , sigma =1.25 ,r_cut =1.25* 2**(1.0/6.0))
polymer_brush.py:097  |  slj.pair_coeff.set('Solvent','Solvent', epsilon = 0, sigma = 1.0)
polymer_brush.py:098  |  slj.pair_coeff.set('Solvent','B', epsilon = 0, sigma = 1.0)
polymer_brush.py:099  |  slj.pair_coeff.set('Solvent','C', epsilon = 0, sigma = 1.0)
polymer_brush.py:100  |  slj.pair_coeff.set('Solvent','CH3_W1', epsilon = 0, sigma = 1.0)
polymer_brush.py:101  |  slj.pair_coeff.set('Solvent','CH3_W2', epsilon = 0, sigma = 1.0)
polymer_brush.py:102  |  slj.pair_coeff.set('Solvent','SolvTail', epsilon = 0, sigma = 1.0)
polymer_brush.py:103  |  slj.pair_coeff.set('W1','W2', epsilon = 0 , sigma =1.0)
polymer_brush.py:104  |  slj.pair_coeff.set('W1','W1', epsilon = 0 , sigma =1.0)
polymer_brush.py:105  |  slj.pair_coeff.set('W2','W2', epsilon = 0 , sigma =1.0)
polymer_brush.py:106  |  slj.pair_coeff.set('W1','B', epsilon = 1.0 , sigma =1.25 ,r_cut =1.25* 2**(1.0/6.0))
polymer_brush.py:107  |  slj.pair_coeff.set('W1','C', epsilon = 1.0 , sigma =1.25 ,r_cut =1.25* 2**(1.0/6.0))
polymer_brush.py:108  |  slj.pair_coeff.set('W2','B', epsilon = 1.0 , sigma =1.25 ,r_cut =1.25* 2**(1.0/6.0))
polymer_brush.py:109  |  slj.pair_coeff.set('W2','C', epsilon = 1.0 , sigma =1.25 ,r_cut =1.25* 2**(1.0/6.0))
polymer_brush.py:110  |  slj.pair_coeff.set('W1','CH3_W1', epsilon = 1.0 , sigma =1.25 ,r_cut =1.25* 2**(1.0/6.0))
polymer_brush.py:111  |  slj.pair_coeff.set('W1','CH3_W2', epsilon = 1.0 , sigma =1.25 ,r_cut =1.25* 2**(1.0/6.0))
polymer_brush.py:112  |  slj.pair_coeff.set('W2','CH3_W1', epsilon = 1.0 , sigma =1.25 ,r_cut =1.25* 2**(1.0/6.0))
polymer_brush.py:113  |  slj.pair_coeff.set('W2','CH3_W2', epsilon = 1.0 , sigma =1.25 ,r_cut =1.25* 2**(1.0/6.0))
polymer_brush.py:114  |  slj.pair_coeff.set('W1','SolvTail', epsilon = 1.0 , sigma =1.25 ,r_cut =1.25* 2**(1.0/6.0))
polymer_brush.py:115  |  slj.pair_coeff.set('W2','SolvTail', epsilon = 1.0 , sigma =1.25 ,r_cut =1.25* 2**(1.0/6.0))
polymer_brush.py:116  |  slj.pair_coeff.set('B','B', epsilon = 0, sigma = 1.0)
polymer_brush.py:117  |  slj.pair_coeff.set('C','C', epsilon = 0, sigma = 1.0)
polymer_brush.py:118  |  slj.pair_coeff.set('B','C', epsilon = 0, sigma = 1.0)
polymer_brush.py:119  |  slj.pair_coeff.set('B','CH3_W1', epsilon = 0, sigma = 1.0)
polymer_brush.py:120  |  slj.pair_coeff.set('B','CH3_W2', epsilon = 0, sigma = 1.0)
polymer_brush.py:121  |  slj.pair_coeff.set('B','SolvTail', epsilon = 0, sigma = 1.0)
polymer_brush.py:122  |  slj.pair_coeff.set('C','CH3_W1', epsilon = 0, sigma = 1.0)
polymer_brush.py:123  |  slj.pair_coeff.set('C','CH3_W2', epsilon = 0, sigma = 1.0)
polymer_brush.py:124  |  slj.pair_coeff.set('C','SolvTail', epsilon = 0, sigma = 1.0)
polymer_brush.py:125  |  slj.pair_coeff.set('CH3_W1','CH3_W1', epsilon = 0, sigma = 1.0)
polymer_brush.py:126  |  slj.pair_coeff.set('CH3_W1','CH3_W2', epsilon = 0, sigma = 1.0)
polymer_brush.py:127  |  slj.pair_coeff.set('CH3_W2','CH3_W2', epsilon = 0, sigma = 1.0)
polymer_brush.py:128  |  slj.pair_coeff.set('CH3_W1','SolvTail', epsilon = 0, sigma = 1.0)
polymer_brush.py:129  |  slj.pair_coeff.set('CH3_W2','SolvTail', epsilon = 0, sigma = 1.0)
polymer_brush.py:130  |  slj.pair_coeff.set('SolvTail','SolvTail', epsilon = 0, sigma = 1.0)
polymer_brush.py:133  |  harmonicO_O= bond.harmonic(name = 'O-O-bond')
polymer_brush.py:135  |  harmonicO_O.bond_coeff.set('oleic', k=9892.9362 , r0=0.5)
polymer_brush.py:138  |  harmonicO_O.bond_coeff.set('wall', k=9892.9362, r0=1.25)
polymer_brush.py:141  |  angleWO = angle.harmonic()
polymer_brush.py:142  |  angleWO.set_coeff('W-O' , k = 201.2878 , t0= 2.5307)
polymer_brush.py:143  |  angleWO.set_coeff('O-O' , k = 201.2878 , t0= 1.92)
polymer_brush.py:144  |  angleWO.set_coeff('kink' , k = 1000.2878 , t0= 2.8)
polymer_brush.py:150  |  dihedralField = dihedral.harmonic()
polymer_brush.py:151  |  dihedralField.set_coeff('DihedralW1' , k = 2.6838 , d=1 , n= 1)
polymer_brush.py:152  |  dihedralField.set_coeff('DihedralW2' , k = 1.4543 , d=-1 , n= 2)
polymer_brush.py:153  |  dihedralField.set_coeff('DihedralW3' , k =5.4347 , d=1 , n= 3)
polymer_brush.py:154  |  dihedralField.set_coeff('Dihedral1' , k =2.6838 , d=1 , n= 1)
polymer_brush.py:155  |  dihedralField.set_coeff('Dihedral2' , k = 1.4543 , d=-1 , n= 2)
polymer_brush.py:156  |  dihedralField.set_coeff('Dihedral3' , k =5.4347 , d=1 , n= 3)
polymer_brush.py:158  |  integrate.mode_standard(dt= 0.005)
polymer_brush.py:160  |  integrator=integrate.nve(group=typeAll , limit=0.01 )
polymer_brush.py:161  |  zeroer = update.zero_momentum(period = 1)
polymer_brush.py:164  |  run(200)
notice(2): -- Neighborlist exclusion statistics -- :
notice(2): Particles with 1 exclusions             : 20480
notice(2): Particles with 2 exclusions             : 90880
notice(2): Neighbors included by diameter          : yes
notice(2): Neighbors excluded when in the same body: no
** starting run **
Time 00:00:14 | Step 200 / 200 | TPS 53.5302 | ETA 00:00:00
Average TPS: 53.5296
---------
-- Neighborlist stats:
9 normal updates / 1 forced updates / 0 dangerous updates
n_neigh_min: 60 / n_neigh_max: 139 / n_neigh_avg: 110.111
shortest rebuild period: 21
-- Cell list stats:
Dimension: 11, 11, 3
n_min    : 8 / n_max: 205 / n_avg: 80.4738
** run complete **
polymer_brush.py:165  |  zeroer.disable()
polymer_brush.py:167  |  integrator.disable()
polymer_brush.py:169  |  integrator=integrate.npt(group=typeAll , tau=1.0 , T= 1.0 , tauP = 1.2 , P = 0.00078 , x=False , y = False , z = True , rescale_all=True )
polymer_brush.py:172  |  run(5e2, profile=True, limit_hours=1)
** starting run **
Time 00:00:18 | Step 700 / 700 | TPS 138.539 | ETA 00:00:00
Average TPS: 138.537
Simulation:  3.6092s | 100.000% 
        Bond harmonic:      0.1359s |  3.764% 
                update bond table:  0.0555s |  1.537% 
                Self:               0.0804s |  2.227% 
        Harmonic Angle:     0.1746s |  4.837% 
        Harmonic Dihedral:  0.2133s |  5.910% 
        Integrate:          0.6142s | 17.018% 
                NPT step 1:  0.0320s |  0.886% 
                        Thermo:  0.0077s |  0.213% 
                        Self:    0.0243s |  0.674% 
                NPT step 2:  0.4174s | 11.564% 
                        Thermo:  0.1460s |  4.046% 
                        Self:    0.2713s |  7.518% 
                Net force:   0.1421s |  3.936% 
                Self:        0.0228s |  0.631% 
        Neighbor:           0.4126s | 11.433% 
[...]
                NPT step 1:  0.0363s |  0.220% 
                        Thermo:  0.0090s |  0.055% 
                        Self:    0.0273s |  0.165% 
                NPT step 2:  0.7087s |  4.289% 
                        Thermo:  0.0734s |  0.444% 
                        Self:    0.6353s |  3.845% 
                Net force:   0.1904s |  1.152% 
                Self:        0.0194s |  0.118% 
        Neighbor:           6.0218s | 36.444% 
                Cell:           0.0850s |  0.514% 
                        compute:  0.0274s |  0.166% 
                        init:     0.0530s |  0.321% 
                MPI allreduce:  0.0261s |  0.158% 
                compute:        3.5290s | 21.358% 
                filter:         1.9207s | 11.624% 
                head-list:      0.4207s |  2.546% 
                update-ex:      0.0343s |  0.208% 
        Pair lj:            2.6540s | 16.062% 
        Pair slj:           2.8547s | 17.277% 
        SFCPack:            0.0024s |  0.014% 
        comm_ghost_exch:    0.5638s |  3.412% 
                MPI send/recv:  0.3316s |  2.007% 3.47449 GiB/s 
                Self:           0.2321s |  1.405% 
        comm_ghost_update:  1.3755s |  8.324% 
                MPI send/recv:  0.8675s |  5.250% 5.09500 GiB/s 
                pack:           0.3533s |  2.138% 
                unpack:         0.1482s |  0.897% 
        comm_migrate:       0.6348s |  3.842% 
                MPI send/recv:  0.0335s |  0.203% 93.07321 MiB/s 
                angle:          0.1238s |  0.749% 
                        MPI send/recv:  0.0403s |  0.244% 76.58803 MiB/s 
                        Self:           0.0835s |  0.505% 
                bond:           0.1203s |  0.728% 
                        MPI send/recv:  0.0345s |  0.209% 40.86253 MiB/s 
                        Self:           0.0858s |  0.519% 
                dihedral:       0.2522s |  1.526% 
                        MPI send/recv:  0.0627s |  0.380% 261.11343 MiB/s 
                        Self:           0.1894s |  1.146% 
                pack:           0.0392s |  0.237% 
                unpack:         0.0169s |  0.102% 
                Self:           0.0489s |  0.296% 
        dist-check:         0.1670s |  1.011% 
        Self:               0.2455s |  1.486% 
---------
-- Neighborlist stats:
74 normal updates / 3 forced updates / 0 dangerous updates
n_neigh_min: 0 / n_neigh_max: 146 / n_neigh_avg: 109.44814
shortest rebuild period: 5
-- Cell list stats:
Dimension: 81, 41, 3
n_min    : 8 / n_max: 172 / n_avg: 67.14323
** run complete **










################################################################
Running: mpirun -n 16 python polymer_brush.py --mode=gpu --user=32
HOOMD-blue 1.3.3-unknown CUDA (7.5) SINGLE MPI SSE SSE2 SSE3 
Compiled: 03/06/2016
Copyright 2009-2016 The Regents of the University of Michigan.

All publications and presentations based on HOOMD-blue, including any reports
or published results obtained, in whole or in part, with HOOMD-blue, will
acknowledge its use according to the terms posted at the time of submission on:
http://codeblue.umich.edu/hoomd-blue/citations.html
-----
You are using HOOMD-blue. Read and cite the following:
* J A Anderson, C D Lorenz, and A Travesset. "General purpose molecular dynamics
  simulations fully implemented on graphics processing units", Journal of
  Computational Physics 227 (2008) 5342--5359
and
* J Glaser, T D Nguyen, J A Anderson, P Liu, F Spiga, J A Millan, D C Morse, and
  S C Glotzer. "Strong scaling of general-purpose molecular dynamics simulations
  on GPUs", Computer Physics Communications 192 (2015) 97--107
and
* http://codeblue.umich.edu/hoomd-blue
You can save these citations to file using cite.save().
-----
notice(2): This system is not compute exclusive, using local rank to select GPUs
notice(2): Unable to identify node local rank information
notice(2): Using global rank to select GPUs
HOOMD-blue is running on the following GPU(s):
Rank 0:  [0]  Tesla P100-PCIE-16GB  56 SM_6.0 @ 1.33 GHz, 16276 MiB DRAM
Rank 1:  [1]  Tesla P100-PCIE-16GB  56 SM_6.0 @ 1.33 GHz, 16276 MiB DRAM
Rank 2:  [2]  Tesla P100-PCIE-16GB  56 SM_6.0 @ 1.33 GHz, 16276 MiB DRAM
Rank 3:  [3]  Tesla P100-PCIE-16GB  56 SM_6.0 @ 1.33 GHz, 16276 MiB DRAM
Rank 4:  [0]  Tesla P100-PCIE-16GB  56 SM_6.0 @ 1.33 GHz, 16276 MiB DRAM
Rank 5:  [1]  Tesla P100-PCIE-16GB  56 SM_6.0 @ 1.33 GHz, 16276 MiB DRAM
Rank 6:  [2]  Tesla P100-PCIE-16GB  56 SM_6.0 @ 1.33 GHz, 16276 MiB DRAM
Rank 7:  [3]  Tesla P100-PCIE-16GB  56 SM_6.0 @ 1.33 GHz, 16276 MiB DRAM
Rank 8:  [0]  Tesla P100-PCIE-16GB  56 SM_6.0 @ 1.33 GHz, 16276 MiB DRAM
Rank 9:  [1]  Tesla P100-PCIE-16GB  56 SM_6.0 @ 1.33 GHz, 16276 MiB DRAM
Rank 10:  [2]  Tesla P100-PCIE-16GB  56 SM_6.0 @ 1.33 GHz, 16276 MiB DRAM
Rank 11:  [3]  Tesla P100-PCIE-16GB  56 SM_6.0 @ 1.33 GHz, 16276 MiB DRAM
Rank 12:  [0]  Tesla P100-PCIE-16GB  56 SM_6.0 @ 1.33 GHz, 16276 MiB DRAM
Rank 13:  [1]  Tesla P100-PCIE-16GB  56 SM_6.0 @ 1.33 GHz, 16276 MiB DRAM
Rank 14:  [2]  Tesla P100-PCIE-16GB  56 SM_6.0 @ 1.33 GHz, 16276 MiB DRAM
Rank 15:  [3]  Tesla P100-PCIE-16GB  56 SM_6.0 @ 1.33 GHz, 16276 MiB DRAM
polymer_brush.py:012  |  system=init.read_xml(filename='init.xml')
notice(2): Reading init.xml...
notice(2): --- hoomd_xml file read summary
notice(2): 1740 positions at timestep 0
notice(2): 1740 velocities
notice(2): 1740 masses
notice(2): 1740 diameters
notice(2): 5 particle types
notice(2): 1740 particle body values
notice(2): 1580 bonds
notice(2): 1420 angles
notice(2): 3780 dihedrals
notice(2): 1740 charges
HOOMD-blue is using domain decomposition: n_x = 2 n_y = 2 n_z = 4.
2 x 2 x 4 local grid on 1 nodes
notice(2): Group "all" created containing 1740 particles
polymer_brush.py:018  |  system.replicate(nx=rep, ny=rep, nz=1)
polymer_brush.py:019  |  typeW1=group.type('W1')
notice(2): Group "type W1" created containing 61440 particles
polymer_brush.py:020  |  typeW2=group.type('W2')
*Warning*: W2 does not exist in the system, creating an empty group
notice(2): Group "type W2" created containing 0 particles
notice(2): Group "Wall" created containing 61440 particles
polymer_brush.py:022  |  typeB= group.type('B')
notice(2): Group "type B" created containing 1044480 particles
polymer_brush.py:023  |  typeSolvBackBone = group.type('Solvent')
notice(2): Group "type Solvent" created containing 409600 particles
polymer_brush.py:024  |  typeC= group.type('C')
*Warning*: C does not exist in the system, creating an empty group
notice(2): Group "type C" created containing 0 particles
polymer_brush.py:025  |  typeCH3_W1=group.type('CH3_W1')
notice(2): Group "type CH3_W1" created containing 61440 particles
polymer_brush.py:026  |  typeCH3_W2=group.type('CH3_W2')
*Warning*: CH3_W2 does not exist in the system, creating an empty group
notice(2): Group "type CH3_W2" created containing 0 particles
polymer_brush.py:027  |  typeSolvTail=group.type('SolvTail')
notice(2): Group "type SolvTail" created containing 204800 particles
notice(2): Group "BCH3-particles" created containing 1105920 particles
notice(2): Group "CCH3-particles" created containing 0 particles
notice(2): Group "all-solvent" created containing 614400 particles
notice(2): Group "bc-particles" created containing 1105920 particles
notice(2): Group "typeAll" created containing 1720320 particles
notice(2): Group "typeNPT" created containing 1781760 particles
Number of polymeric particles 1720320
polymer_brush.py:044  |  lj = pair.lj(r_cut=3.3)
nlist.py:1051  |          globals.neighbor_list = cell();
polymer_brush.py:052  |  lj.pair_coeff.set('Solvent','W1' ,epsilon=0 , sigma=1.3144)
polymer_brush.py:053  |  lj.pair_coeff.set('Solvent','W2' ,epsilon=0 , sigma=1.3144)
polymer_brush.py:054  |  lj.pair_coeff.set('Solvent','Solvent' ,epsilon=1.0*tether_bulk , sigma=1.3144)
polymer_brush.py:055  |  lj.pair_coeff.set('Solvent','B' ,epsilon=tether_bulk , sigma=1.3144)
polymer_brush.py:056  |  lj.pair_coeff.set('Solvent','C' ,epsilon=tether_bulk , sigma=1.3144)
polymer_brush.py:057  |  lj.pair_coeff.set('Solvent','CH3_W1' ,epsilon=bulk_tails , sigma=1.3144)
polymer_brush.py:058  |  lj.pair_coeff.set('Solvent','CH3_W2' ,epsilon=bulk_tails , sigma=1.3144)
polymer_brush.py:059  |  lj.pair_coeff.set('Solvent','SolvTail' ,epsilon=bulk_tails , sigma=1.3144)
polymer_brush.py:060  |  lj.pair_coeff.set('B','B' ,epsilon=tether_bulk , sigma=1.3144)
polymer_brush.py:061  |  lj.pair_coeff.set('C','C' ,epsilon=tether_bulk , sigma=1.3144)
polymer_brush.py:062  |  lj.pair_coeff.set('B','C' ,epsilon=tether_bulk , sigma=1.3144)
polymer_brush.py:063  |  lj.pair_coeff.set('B','CH3_W1' ,epsilon=bulk_tails , sigma=1.3144)
polymer_brush.py:064  |  lj.pair_coeff.set('B','CH3_W2' ,epsilon=bulk_tails , sigma=1.3144)
polymer_brush.py:065  |  lj.pair_coeff.set('C','CH3_W1' ,epsilon=bulk_tails , sigma=1.3144)
polymer_brush.py:066  |  lj.pair_coeff.set('C','CH3_W2' ,epsilon=bulk_tails , sigma=1.3144)
polymer_brush.py:067  |  lj.pair_coeff.set('CH3_W1','CH3_W1' ,epsilon=tails , sigma=1.3144)
polymer_brush.py:068  |  lj.pair_coeff.set('CH3_W1','CH3_W2' ,epsilon=tails , sigma=1.3144)
polymer_brush.py:069  |  lj.pair_coeff.set('CH3_W2' ,'CH3_W2' ,epsilon=tails , sigma=1.3144)
polymer_brush.py:071  |  lj.pair_coeff.set('B','SolvTail' ,epsilon=bulk_tails , sigma=1.3144)
polymer_brush.py:072  |  lj.pair_coeff.set('C','SolvTail' ,epsilon=bulk_tails , sigma=1.3144)
polymer_brush.py:073  |  lj.pair_coeff.set('CH3_W1','SolvTail' ,epsilon=tails , sigma=1.3144)
polymer_brush.py:074  |  lj.pair_coeff.set('CH3_W2','SolvTail' ,epsilon=tails , sigma=1.3144)
polymer_brush.py:075  |  lj.pair_coeff.set('SolvTail' ,'SolvTail' ,epsilon=tails , sigma=1.3144)
polymer_brush.py:077  |  lj.pair_coeff.set('B','C' ,epsilon=0.01 , sigma=2.62 , alpha=0.0)
polymer_brush.py:078  |  lj.pair_coeff.set('W1','W2' ,epsilon=0.0 , sigma=1.0)
polymer_brush.py:079  |  lj.pair_coeff.set('W1','W1' ,epsilon=0.0 , sigma=1.0)
polymer_brush.py:080  |  lj.pair_coeff.set('W1','B' ,epsilon=0.0 , sigma = 1.0)
polymer_brush.py:081  |  lj.pair_coeff.set('W1','C' ,epsilon=0.0 , sigma = 1.0)
polymer_brush.py:082  |  lj.pair_coeff.set('W2','W2' ,epsilon=0.0 , sigma=1.0)
polymer_brush.py:083  |  lj.pair_coeff.set('W2','B' ,epsilon=0.0 , sigma = 1.0)
polymer_brush.py:084  |  lj.pair_coeff.set('W2','C' ,epsilon=0.0 , sigma = 1.0)
polymer_brush.py:085  |  lj.pair_coeff.set('W1','CH3_W1' ,epsilon=0.0 , sigma = 1.0)
polymer_brush.py:086  |  lj.pair_coeff.set('W1','CH3_W2' ,epsilon=0.0 , sigma = 1.0)
polymer_brush.py:087  |  lj.pair_coeff.set('W1','SolvTail' ,epsilon=0.0 , sigma = 1.0)
polymer_brush.py:088  |  lj.pair_coeff.set('W2','CH3_W1' ,epsilon=0.0 , sigma = 1.0)
polymer_brush.py:089  |  lj.pair_coeff.set('W2','CH3_W2' ,epsilon=0.0 , sigma = 1.0)
polymer_brush.py:090  |  lj.pair_coeff.set('W2','SolvTail' ,epsilon=0.0 , sigma = 1.0)
polymer_brush.py:091  |  lj.pair_coeff.set('A','C' ,epsilon=0.0 , sigma=1.0 , alpha=0.0)
polymer_brush.py:093  |  slj = pair.slj(r_cut= 1.3)
notice(2): Notice: slj set d_max=2.0
polymer_brush.py:094  |  slj.set_params(mode="shift")
pair.py:886  |          pair.set_params(self, mode=mode);
polymer_brush.py:095  |  slj.pair_coeff.set('W2','Solvent', epsilon = 1.0 , sigma =1.25 ,r_cut =1.25* 2**(1.0/6.0))
polymer_brush.py:096  |  slj.pair_coeff.set('W1','Solvent', epsilon = 1.0 , sigma =1.25 ,r_cut =1.25* 2**(1.0/6.0))
polymer_brush.py:097  |  slj.pair_coeff.set('Solvent','Solvent', epsilon = 0, sigma = 1.0)
polymer_brush.py:098  |  slj.pair_coeff.set('Solvent','B', epsilon = 0, sigma = 1.0)
polymer_brush.py:099  |  slj.pair_coeff.set('Solvent','C', epsilon = 0, sigma = 1.0)
polymer_brush.py:100  |  slj.pair_coeff.set('Solvent','CH3_W1', epsilon = 0, sigma = 1.0)
polymer_brush.py:101  |  slj.pair_coeff.set('Solvent','CH3_W2', epsilon = 0, sigma = 1.0)
polymer_brush.py:102  |  slj.pair_coeff.set('Solvent','SolvTail', epsilon = 0, sigma = 1.0)
polymer_brush.py:103  |  slj.pair_coeff.set('W1','W2', epsilon = 0 , sigma =1.0)
polymer_brush.py:104  |  slj.pair_coeff.set('W1','W1', epsilon = 0 , sigma =1.0)
polymer_brush.py:105  |  slj.pair_coeff.set('W2','W2', epsilon = 0 , sigma =1.0)
polymer_brush.py:106  |  slj.pair_coeff.set('W1','B', epsilon = 1.0 , sigma =1.25 ,r_cut =1.25* 2**(1.0/6.0))
polymer_brush.py:107  |  slj.pair_coeff.set('W1','C', epsilon = 1.0 , sigma =1.25 ,r_cut =1.25* 2**(1.0/6.0))
polymer_brush.py:108  |  slj.pair_coeff.set('W2','B', epsilon = 1.0 , sigma =1.25 ,r_cut =1.25* 2**(1.0/6.0))
polymer_brush.py:109  |  slj.pair_coeff.set('W2','C', epsilon = 1.0 , sigma =1.25 ,r_cut =1.25* 2**(1.0/6.0))
polymer_brush.py:110  |  slj.pair_coeff.set('W1','CH3_W1', epsilon = 1.0 , sigma =1.25 ,r_cut =1.25* 2**(1.0/6.0))
polymer_brush.py:111  |  slj.pair_coeff.set('W1','CH3_W2', epsilon = 1.0 , sigma =1.25 ,r_cut =1.25* 2**(1.0/6.0))
polymer_brush.py:112  |  slj.pair_coeff.set('W2','CH3_W1', epsilon = 1.0 , sigma =1.25 ,r_cut =1.25* 2**(1.0/6.0))
polymer_brush.py:113  |  slj.pair_coeff.set('W2','CH3_W2', epsilon = 1.0 , sigma =1.25 ,r_cut =1.25* 2**(1.0/6.0))
polymer_brush.py:114  |  slj.pair_coeff.set('W1','SolvTail', epsilon = 1.0 , sigma =1.25 ,r_cut =1.25* 2**(1.0/6.0))
polymer_brush.py:115  |  slj.pair_coeff.set('W2','SolvTail', epsilon = 1.0 , sigma =1.25 ,r_cut =1.25* 2**(1.0/6.0))
polymer_brush.py:116  |  slj.pair_coeff.set('B','B', epsilon = 0, sigma = 1.0)
polymer_brush.py:117  |  slj.pair_coeff.set('C','C', epsilon = 0, sigma = 1.0)
polymer_brush.py:118  |  slj.pair_coeff.set('B','C', epsilon = 0, sigma = 1.0)
polymer_brush.py:119  |  slj.pair_coeff.set('B','CH3_W1', epsilon = 0, sigma = 1.0)
polymer_brush.py:120  |  slj.pair_coeff.set('B','CH3_W2', epsilon = 0, sigma = 1.0)
polymer_brush.py:121  |  slj.pair_coeff.set('B','SolvTail', epsilon = 0, sigma = 1.0)
polymer_brush.py:122  |  slj.pair_coeff.set('C','CH3_W1', epsilon = 0, sigma = 1.0)
polymer_brush.py:123  |  slj.pair_coeff.set('C','CH3_W2', epsilon = 0, sigma = 1.0)
polymer_brush.py:124  |  slj.pair_coeff.set('C','SolvTail', epsilon = 0, sigma = 1.0)
polymer_brush.py:125  |  slj.pair_coeff.set('CH3_W1','CH3_W1', epsilon = 0, sigma = 1.0)
polymer_brush.py:126  |  slj.pair_coeff.set('CH3_W1','CH3_W2', epsilon = 0, sigma = 1.0)
polymer_brush.py:127  |  slj.pair_coeff.set('CH3_W2','CH3_W2', epsilon = 0, sigma = 1.0)
polymer_brush.py:128  |  slj.pair_coeff.set('CH3_W1','SolvTail', epsilon = 0, sigma = 1.0)
polymer_brush.py:129  |  slj.pair_coeff.set('CH3_W2','SolvTail', epsilon = 0, sigma = 1.0)
polymer_brush.py:130  |  slj.pair_coeff.set('SolvTail','SolvTail', epsilon = 0, sigma = 1.0)
polymer_brush.py:133  |  harmonicO_O= bond.harmonic(name = 'O-O-bond')
polymer_brush.py:135  |  harmonicO_O.bond_coeff.set('oleic', k=9892.9362 , r0=0.5)
polymer_brush.py:138  |  harmonicO_O.bond_coeff.set('wall', k=9892.9362, r0=1.25)
polymer_brush.py:141  |  angleWO = angle.harmonic()
polymer_brush.py:142  |  angleWO.set_coeff('W-O' , k = 201.2878 , t0= 2.5307)
polymer_brush.py:143  |  angleWO.set_coeff('O-O' , k = 201.2878 , t0= 1.92)
polymer_brush.py:144  |  angleWO.set_coeff('kink' , k = 1000.2878 , t0= 2.8)
polymer_brush.py:150  |  dihedralField = dihedral.harmonic()
polymer_brush.py:151  |  dihedralField.set_coeff('DihedralW1' , k = 2.6838 , d=1 , n= 1)
polymer_brush.py:152  |  dihedralField.set_coeff('DihedralW2' , k = 1.4543 , d=-1 , n= 2)
polymer_brush.py:153  |  dihedralField.set_coeff('DihedralW3' , k =5.4347 , d=1 , n= 3)
polymer_brush.py:154  |  dihedralField.set_coeff('Dihedral1' , k =2.6838 , d=1 , n= 1)
polymer_brush.py:155  |  dihedralField.set_coeff('Dihedral2' , k = 1.4543 , d=-1 , n= 2)
polymer_brush.py:156  |  dihedralField.set_coeff('Dihedral3' , k =5.4347 , d=1 , n= 3)
polymer_brush.py:158  |  integrate.mode_standard(dt= 0.005)
polymer_brush.py:160  |  integrator=integrate.nve(group=typeAll , limit=0.01 )
polymer_brush.py:161  |  zeroer = update.zero_momentum(period = 1)
polymer_brush.py:164  |  run(200)
notice(2): -- Neighborlist exclusion statistics -- :
notice(2): Particles with 1 exclusions             : 327680
notice(2): Particles with 2 exclusions             : 1454080
notice(2): Neighbors included by diameter          : yes
notice(2): Neighbors excluded when in the same body: no
** starting run **
Time 00:00:32 | Step 200 / 200 | TPS 22.097 | ETA 00:00:00
Average TPS: 22.0968
---------
-- Neighborlist stats:
9 normal updates / 1 forced updates / 0 dangerous updates
n_neigh_min: 0 / n_neigh_max: 142 / n_neigh_avg: 109.981
shortest rebuild period: 21
-- Cell list stats:
Dimension: 41, 41, 3
n_min    : 8 / n_max: 179 / n_avg: 71.7186
** run complete **
polymer_brush.py:165  |  zeroer.disable()
polymer_brush.py:167  |  integrator.disable()
polymer_brush.py:169  |  integrator=integrate.npt(group=typeAll , tau=1.0 , T= 1.0 , tauP = 1.2 , P = 0.00078 , x=False , y = False , z = True , rescale_all=True )
polymer_brush.py:172  |  run(5e2, profile=True, limit_hours=1)
** starting run **
Time 00:00:43 | Step 557 / 700 | TPS 35.6903 | ETA 00:00:04
Time 00:00:47 | Step 700 / 700 | TPS 34.0953 | ETA 00:00:00
Average TPS: 35.219
Simulation: 14.1969s | 100.000% 
        Bond harmonic:      0.1749s |  1.232% 
                update bond table:  0.0646s |  0.455% 
                Self:               0.1103s |  0.777% 
        Harmonic Angle:     0.2477s |  1.745% 
        Harmonic Dihedral:  0.5527s |  3.893% 
        Integrate:          1.3947s |  9.824% 
                NPT step 1:  0.0390s |  0.275% 
                        Thermo:  0.0165s |  0.116% 
                        Self:    0.0225s |  0.159% 
                NPT step 2:  1.1067s |  7.795% 
                        Thermo:  0.1763s |  1.242% 
                        Self:    0.9304s |  6.554% 
                Net force:   0.2393s |  1.686% 
        Neighbor:           5.0501s | 35.572% 
                Cell:           0.1549s |  1.091% 
                        compute:  0.0592s |  0.417% 
                        init:     0.0818s |  0.576% 
                MPI allreduce:  0.8996s |  6.337% 
                compute:        2.5257s | 17.791% 
                filter:         1.1630s |  8.192% 
                head-list:      0.2337s |  1.646% 
                update-ex:      0.0363s |  0.256% 
                Self:           0.0368s |  0.259% 
        Pair lj:            1.7731s | 12.490% 
        Pair slj:           1.6463s | 11.596% 
        SFCPack:            0.0022s |  0.015% 
        comm_ghost_exch:    0.5486s |  3.864% 
                MPI send/recv:  0.2635s |  1.856% 2.41561 GiB/s 
                Self:           0.2851s |  2.008% 
        comm_ghost_update:  1.4842s | 10.454% 
                MPI send/recv:  0.6751s |  4.755% 4.36112 GiB/s 
                pack:           0.3660s |  2.578% 
                unpack:         0.4341s |  3.057% 
        comm_migrate:       0.8495s |  5.984% 
                MPI send/recv:  0.0371s |  0.261% 58.73740 MiB/s 
                angle:          0.2163s |  1.523% 
                        MPI send/recv:  0.0885s |  0.623% 25.14460 MiB/s 
                        Self:           0.1278s |  0.900% 
                bond:           0.1817s |  1.280% 
                        MPI send/recv:  0.0520s |  0.366% 19.33363 MiB/s 
                        Self:           0.1298s |  0.914% 
                dihedral:       0.2955s |  2.081% 
                        MPI send/recv:  0.0882s |  0.622% 135.07974 MiB/s 
                        Self:           0.2072s |  1.460% 
                pack:           0.0400s |  0.282% 
                unpack:         0.0236s |  0.166% 
                Self:           0.0553s |  0.389% 
        dist-check:         0.3312s |  2.333% 
        Self:               0.1416s |  0.997% 
---------
-- Neighborlist stats:
73 normal updates / 3 forced updates / 0 dangerous updates
n_neigh_min: 35 / n_neigh_max: 149 / n_neigh_avg: 109.48051
shortest rebuild period: 5
-- Cell list stats:
Dimension: 41, 41, 3
n_min    : 8 / n_max: 182 / n_avg: 69.55186
** run complete **










