HOOMD-blue 1.3.3-unknown CUDA (7.5) SINGLE MPI SSE SSE2 SSE3 
Compiled: 03/06/2016
Copyright 2009-2016 The Regents of the University of Michigan.

All publications and presentations based on HOOMD-blue, including any reports
or published results obtained, in whole or in part, with HOOMD-blue, will
acknowledge its use according to the terms posted at the time of submission on:
http://codeblue.umich.edu/hoomd-blue/citations.html
-----
You are using HOOMD-blue. Read and cite the following:
* J A Anderson, C D Lorenz, and A Travesset. "General purpose molecular dynamics
  simulations fully implemented on graphics processing units", Journal of
  Computational Physics 227 (2008) 5342--5359
and
* J Glaser, T D Nguyen, J A Anderson, P Liu, F Spiga, J A Millan, D C Morse, and
  S C Glotzer. "Strong scaling of general-purpose molecular dynamics simulations
  on GPUs", Computer Physics Communications 192 (2015) 97--107
and
* http://codeblue.umich.edu/hoomd-blue
You can save these citations to file using cite.save().
-----
notice(2): This system is not compute exclusive, using local rank to select GPUs
notice(2): Unable to identify node local rank information
notice(2): Using global rank to select GPUs
HOOMD-blue is running on the following GPU(s):
Rank 0:  [0]            Tesla K40m  15 SM_3.5 @ 0.745 GHz, 11439 MiB DRAM
Rank 1:  [1]            Tesla K40m  15 SM_3.5 @ 0.745 GHz, 11439 MiB DRAM
Rank 2:  [2]            Tesla K40m  15 SM_3.5 @ 0.745 GHz, 11439 MiB DRAM
Rank 3:  [3]            Tesla K40m  15 SM_3.5 @ 0.745 GHz, 11439 MiB DRAM
Rank 4:  [4]            Tesla K40m  15 SM_3.5 @ 0.745 GHz, 11439 MiB DRAM
Rank 5:  [5]            Tesla K40m  15 SM_3.5 @ 0.745 GHz, 11439 MiB DRAM
Rank 6:  [0]            Tesla K40m  15 SM_3.5 @ 0.745 GHz, 11439 MiB DRAM
Rank 7:  [1]            Tesla K40m  15 SM_3.5 @ 0.745 GHz, 11439 MiB DRAM
Rank 8:  [2]            Tesla K40m  15 SM_3.5 @ 0.745 GHz, 11439 MiB DRAM
Rank 9:  [3]            Tesla K40m  15 SM_3.5 @ 0.745 GHz, 11439 MiB DRAM
Rank 10:  [4]            Tesla K40m  15 SM_3.5 @ 0.745 GHz, 11439 MiB DRAM
Rank 11:  [5]            Tesla K40m  15 SM_3.5 @ 0.745 GHz, 11439 MiB DRAM
Rank 12:  [0]            Tesla K40m  15 SM_3.5 @ 0.745 GHz, 11439 MiB DRAM
Rank 13:  [1]            Tesla K40m  15 SM_3.5 @ 0.745 GHz, 11439 MiB DRAM
Rank 14:  [2]            Tesla K40m  15 SM_3.5 @ 0.745 GHz, 11439 MiB DRAM
Rank 15:  [3]            Tesla K40m  15 SM_3.5 @ 0.745 GHz, 11439 MiB DRAM
polymer_brush.py:012  |  system=init.read_xml(filename='init.xml')
notice(2): Reading init.xml...
notice(2): --- hoomd_xml file read summary
notice(2): 1740 positions at timestep 0
notice(2): 1740 velocities
notice(2): 1740 masses
notice(2): 1740 diameters
notice(2): 5 particle types
notice(2): 1740 particle body values
notice(2): 1580 bonds
notice(2): 1420 angles
notice(2): 3780 dihedrals
notice(2): 1740 charges
HOOMD-blue is using domain decomposition: n_x = 2 n_y = 2 n_z = 4.
2 x 2 x 4 local grid on 1 nodes
notice(2): Group "all" created containing 1740 particles
polymer_brush.py:018  |  system.replicate(nx=rep, ny=rep, nz=1)
polymer_brush.py:019  |  typeW1=group.type('W1')
notice(2): Group "type W1" created containing 3840 particles
polymer_brush.py:020  |  typeW2=group.type('W2')
*Warning*: W2 does not exist in the system, creating an empty group
notice(2): Group "type W2" created containing 0 particles
notice(2): Group "Wall" created containing 3840 particles
polymer_brush.py:022  |  typeB= group.type('B')
notice(2): Group "type B" created containing 65280 particles
polymer_brush.py:023  |  typeSolvBackBone = group.type('Solvent')
notice(2): Group "type Solvent" created containing 25600 particles
polymer_brush.py:024  |  typeC= group.type('C')
*Warning*: C does not exist in the system, creating an empty group
notice(2): Group "type C" created containing 0 particles
polymer_brush.py:025  |  typeCH3_W1=group.type('CH3_W1')
notice(2): Group "type CH3_W1" created containing 3840 particles
polymer_brush.py:026  |  typeCH3_W2=group.type('CH3_W2')
*Warning*: CH3_W2 does not exist in the system, creating an empty group
notice(2): Group "type CH3_W2" created containing 0 particles
polymer_brush.py:027  |  typeSolvTail=group.type('SolvTail')
notice(2): Group "type SolvTail" created containing 12800 particles
notice(2): Group "BCH3-particles" created containing 69120 particles
notice(2): Group "CCH3-particles" created containing 0 particles
notice(2): Group "all-solvent" created containing 38400 particles
notice(2): Group "bc-particles" created containing 69120 particles
notice(2): Group "typeAll" created containing 107520 particles
notice(2): Group "typeNPT" created containing 111360 particles
Number of polymeric particles 107520
Traceback (most recent call last):
  File "polymer_brush.py", line 45, in <module>
    nl = hoomd.md.nlist.tree(r_buff = 0)
AttributeError: 'module' object has no attribute 'md'
application called MPI_Abort(MPI_COMM_WORLD, 15) - process 0
Traceback (most recent call last):
  File "polymer_brush.py", line 45, in <module>
    nl = hoomd.md.nlist.tree(r_buff = 0)
AttributeError: 'module' object has no attribute 'md'
application called MPI_Abort(MPI_COMM_WORLD, 15) - process 2
Traceback (most recent call last):
  File "polymer_brush.py", line 45, in <module>
    nl = hoomd.md.nlist.tree(r_buff = 0)
AttributeError: 'module' object has no attribute 'md'
application called MPI_Abort(MPI_COMM_WORLD, 15) - process 3
Traceback (most recent call last):
  File "polymer_brush.py", line 45, in <module>
    nl = hoomd.md.nlist.tree(r_buff = 0)
AttributeError: 'module' object has no attribute 'md'
application called MPI_Abort(MPI_COMM_WORLD, 15) - process 1
Traceback (most recent call last):
  File "polymer_brush.py", line 45, in <module>
    nl = hoomd.md.nlist.tree(r_buff = 0)
AttributeError: 'module' object has no attribute 'md'
application called MPI_Abort(MPI_COMM_WORLD, 15) - process 4
Traceback (most recent call last):
  File "polymer_brush.py", line 45, in <module>
    nl = hoomd.md.nlist.tree(r_buff = 0)
AttributeError: 'module' object has no attribute 'md'
application called MPI_Abort(MPI_COMM_WORLD, 15) - process 6
Traceback (most recent call last):
  File "polymer_brush.py", line 45, in <module>
    nl = hoomd.md.nlist.tree(r_buff = 0)
AttributeError: 'module' object has no attribute 'md'
application called MPI_Abort(MPI_COMM_WORLD, 15) - process 7
Traceback (most recent call last):
  File "polymer_brush.py", line 45, in <module>
    nl = hoomd.md.nlist.tree(r_buff = 0)
AttributeError: 'module' object has no attribute 'md'
application called MPI_Abort(MPI_COMM_WORLD, 15) - process 5
Traceback (most recent call last):
  File "polymer_brush.py", line 45, in <module>
    nl = hoomd.md.nlist.tree(r_buff = 0)
AttributeError: 'module' object has no attribute 'md'
application called MPI_Abort(MPI_COMM_WORLD, 15) - process 14
Traceback (most recent call last):
  File "polymer_brush.py", line 45, in <module>
    nl = hoomd.md.nlist.tree(r_buff = 0)
AttributeError: 'module' object has no attribute 'md'
application called MPI_Abort(MPI_COMM_WORLD, 15) - process 8
Traceback (most recent call last):
  File "polymer_brush.py", line 45, in <module>
    nl = hoomd.md.nlist.tree(r_buff = 0)
AttributeError: 'module' object has no attribute 'md'
application called MPI_Abort(MPI_COMM_WORLD, 15) - process 12
Traceback (most recent call last):
  File "polymer_brush.py", line 45, in <module>
    nl = hoomd.md.nlist.tree(r_buff = 0)
AttributeError: 'module' object has no attribute 'md'
application called MPI_Abort(MPI_COMM_WORLD, 15) - process 10
Traceback (most recent call last):
  File "polymer_brush.py", line 45, in <module>
    nl = hoomd.md.nlist.tree(r_buff = 0)
AttributeError: 'module' object has no attribute 'md'
application called MPI_Abort(MPI_COMM_WORLD, 15) - process 9
Traceback (most recent call last):
  File "polymer_brush.py", line 45, in <module>
Traceback (most recent call last):
  File "polymer_brush.py", line 45, in <module>
    nl = hoomd.md.nlist.tree(r_buff = 0)
    nl = hoomd.md.nlist.tree(r_buff = 0)
AttributeError: 'module' object has no attribute 'md'
application called MPI_Abort(MPI_COMM_WORLD, 15) - process 15
AttributeError: 'module' object has no attribute 'md'
application called MPI_Abort(MPI_COMM_WORLD, 15) - process 11
Traceback (most recent call last):
  File "polymer_brush.py", line 45, in <module>
    nl = hoomd.md.nlist.tree(r_buff = 0)
AttributeError: 'module' object has no attribute 'md'
application called MPI_Abort(MPI_COMM_WORLD, 15) - process 13
