################################################################
GPU n=8
################################################################
################################################################
Running: mpirun -n 1 python polymer_brush.py --mode=gpu --user=8
HOOMD-blue 1.3.3-unknown CUDA (7.5) SINGLE MPI SSE SSE2 SSE3 
Compiled: 03/06/2016
Copyright 2009-2016 The Regents of the University of Michigan.

All publications and presentations based on HOOMD-blue, including any reports
or published results obtained, in whole or in part, with HOOMD-blue, will
acknowledge its use according to the terms posted at the time of submission on:
http://codeblue.umich.edu/hoomd-blue/citations.html
-----
You are using HOOMD-blue. Read and cite the following:
* J A Anderson, C D Lorenz, and A Travesset. "General purpose molecular dynamics
  simulations fully implemented on graphics processing units", Journal of
  Computational Physics 227 (2008) 5342--5359
and
* J Glaser, T D Nguyen, J A Anderson, P Liu, F Spiga, J A Millan, D C Morse, and
  S C Glotzer. "Strong scaling of general-purpose molecular dynamics simulations
  on GPUs", Computer Physics Communications 192 (2015) 97--107
and
* http://codeblue.umich.edu/hoomd-blue
You can save these citations to file using cite.save().
-----
notice(2): This system is not compute exclusive, using local rank to select GPUs
notice(2): Unable to identify node local rank information
notice(2): Using global rank to select GPUs
HOOMD-blue is running on the following GPU(s):
 [0]  Tesla P100-PCIE-16GB  56 SM_6.0 @ 1.33 GHz, 16276 MiB DRAM
polymer_brush.py:012  |  system=init.read_xml(filename='init.xml')
notice(2): Reading init.xml...
notice(2): --- hoomd_xml file read summary
notice(2): 1740 positions at timestep 0
notice(2): 1740 velocities
notice(2): 1740 masses
notice(2): 1740 diameters
notice(2): 5 particle types
notice(2): 1740 particle body values
notice(2): 1580 bonds
notice(2): 1420 angles
notice(2): 3780 dihedrals
notice(2): 1740 charges
notice(2): Group "all" created containing 1740 particles
polymer_brush.py:018  |  system.replicate(nx=rep, ny=rep, nz=1)
polymer_brush.py:019  |  typeW1=group.type('W1')
notice(2): Group "type W1" created containing 3840 particles
polymer_brush.py:020  |  typeW2=group.type('W2')
*Warning*: W2 does not exist in the system, creating an empty group
notice(2): Group "type W2" created containing 0 particles
notice(2): Group "Wall" created containing 3840 particles
polymer_brush.py:022  |  typeB= group.type('B')
notice(2): Group "type B" created containing 65280 particles
polymer_brush.py:023  |  typeSolvBackBone = group.type('Solvent')
notice(2): Group "type Solvent" created containing 25600 particles
polymer_brush.py:024  |  typeC= group.type('C')
*Warning*: C does not exist in the system, creating an empty group
notice(2): Group "type C" created containing 0 particles
polymer_brush.py:025  |  typeCH3_W1=group.type('CH3_W1')
notice(2): Group "type CH3_W1" created containing 3840 particles
polymer_brush.py:026  |  typeCH3_W2=group.type('CH3_W2')
*Warning*: CH3_W2 does not exist in the system, creating an empty group
notice(2): Group "type CH3_W2" created containing 0 particles
polymer_brush.py:027  |  typeSolvTail=group.type('SolvTail')
notice(2): Group "type SolvTail" created containing 12800 particles
notice(2): Group "BCH3-particles" created containing 69120 particles
notice(2): Group "CCH3-particles" created containing 0 particles
notice(2): Group "all-solvent" created containing 38400 particles
notice(2): Group "bc-particles" created containing 69120 particles
notice(2): Group "typeAll" created containing 107520 particles
notice(2): Group "typeNPT" created containing 111360 particles
Number of polymeric particles 107520
polymer_brush.py:044  |  lj = pair.lj(r_cut=3.3)
nlist.py:1051  |          globals.neighbor_list = cell();
polymer_brush.py:052  |  lj.pair_coeff.set('Solvent','W1' ,epsilon=0 , sigma=1.3144)
polymer_brush.py:053  |  lj.pair_coeff.set('Solvent','W2' ,epsilon=0 , sigma=1.3144)
polymer_brush.py:054  |  lj.pair_coeff.set('Solvent','Solvent' ,epsilon=1.0*tether_bulk , sigma=1.3144)
polymer_brush.py:055  |  lj.pair_coeff.set('Solvent','B' ,epsilon=tether_bulk , sigma=1.3144)
polymer_brush.py:056  |  lj.pair_coeff.set('Solvent','C' ,epsilon=tether_bulk , sigma=1.3144)
polymer_brush.py:057  |  lj.pair_coeff.set('Solvent','CH3_W1' ,epsilon=bulk_tails , sigma=1.3144)
polymer_brush.py:058  |  lj.pair_coeff.set('Solvent','CH3_W2' ,epsilon=bulk_tails , sigma=1.3144)
polymer_brush.py:059  |  lj.pair_coeff.set('Solvent','SolvTail' ,epsilon=bulk_tails , sigma=1.3144)
polymer_brush.py:060  |  lj.pair_coeff.set('B','B' ,epsilon=tether_bulk , sigma=1.3144)
polymer_brush.py:061  |  lj.pair_coeff.set('C','C' ,epsilon=tether_bulk , sigma=1.3144)
polymer_brush.py:062  |  lj.pair_coeff.set('B','C' ,epsilon=tether_bulk , sigma=1.3144)
polymer_brush.py:063  |  lj.pair_coeff.set('B','CH3_W1' ,epsilon=bulk_tails , sigma=1.3144)
polymer_brush.py:064  |  lj.pair_coeff.set('B','CH3_W2' ,epsilon=bulk_tails , sigma=1.3144)
polymer_brush.py:065  |  lj.pair_coeff.set('C','CH3_W1' ,epsilon=bulk_tails , sigma=1.3144)
polymer_brush.py:066  |  lj.pair_coeff.set('C','CH3_W2' ,epsilon=bulk_tails , sigma=1.3144)
polymer_brush.py:067  |  lj.pair_coeff.set('CH3_W1','CH3_W1' ,epsilon=tails , sigma=1.3144)
polymer_brush.py:068  |  lj.pair_coeff.set('CH3_W1','CH3_W2' ,epsilon=tails , sigma=1.3144)
polymer_brush.py:069  |  lj.pair_coeff.set('CH3_W2' ,'CH3_W2' ,epsilon=tails , sigma=1.3144)
polymer_brush.py:071  |  lj.pair_coeff.set('B','SolvTail' ,epsilon=bulk_tails , sigma=1.3144)
polymer_brush.py:072  |  lj.pair_coeff.set('C','SolvTail' ,epsilon=bulk_tails , sigma=1.3144)
polymer_brush.py:073  |  lj.pair_coeff.set('CH3_W1','SolvTail' ,epsilon=tails , sigma=1.3144)
polymer_brush.py:074  |  lj.pair_coeff.set('CH3_W2','SolvTail' ,epsilon=tails , sigma=1.3144)
polymer_brush.py:075  |  lj.pair_coeff.set('SolvTail' ,'SolvTail' ,epsilon=tails , sigma=1.3144)
polymer_brush.py:077  |  lj.pair_coeff.set('B','C' ,epsilon=0.01 , sigma=2.62 , alpha=0.0)
polymer_brush.py:078  |  lj.pair_coeff.set('W1','W2' ,epsilon=0.0 , sigma=1.0)
polymer_brush.py:079  |  lj.pair_coeff.set('W1','W1' ,epsilon=0.0 , sigma=1.0)
polymer_brush.py:080  |  lj.pair_coeff.set('W1','B' ,epsilon=0.0 , sigma = 1.0)
polymer_brush.py:081  |  lj.pair_coeff.set('W1','C' ,epsilon=0.0 , sigma = 1.0)
polymer_brush.py:082  |  lj.pair_coeff.set('W2','W2' ,epsilon=0.0 , sigma=1.0)
polymer_brush.py:083  |  lj.pair_coeff.set('W2','B' ,epsilon=0.0 , sigma = 1.0)
polymer_brush.py:084  |  lj.pair_coeff.set('W2','C' ,epsilon=0.0 , sigma = 1.0)
polymer_brush.py:085  |  lj.pair_coeff.set('W1','CH3_W1' ,epsilon=0.0 , sigma = 1.0)
polymer_brush.py:086  |  lj.pair_coeff.set('W1','CH3_W2' ,epsilon=0.0 , sigma = 1.0)
polymer_brush.py:087  |  lj.pair_coeff.set('W1','SolvTail' ,epsilon=0.0 , sigma = 1.0)
polymer_brush.py:088  |  lj.pair_coeff.set('W2','CH3_W1' ,epsilon=0.0 , sigma = 1.0)
polymer_brush.py:089  |  lj.pair_coeff.set('W2','CH3_W2' ,epsilon=0.0 , sigma = 1.0)
polymer_brush.py:090  |  lj.pair_coeff.set('W2','SolvTail' ,epsilon=0.0 , sigma = 1.0)
polymer_brush.py:091  |  lj.pair_coeff.set('A','C' ,epsilon=0.0 , sigma=1.0 , alpha=0.0)
polymer_brush.py:093  |  slj = pair.slj(r_cut= 1.3)
notice(2): Notice: slj set d_max=2.0
polymer_brush.py:094  |  slj.set_params(mode="shift")
pair.py:886  |          pair.set_params(self, mode=mode);
polymer_brush.py:095  |  slj.pair_coeff.set('W2','Solvent', epsilon = 1.0 , sigma =1.25 ,r_cut =1.25* 2**(1.0/6.0))
polymer_brush.py:096  |  slj.pair_coeff.set('W1','Solvent', epsilon = 1.0 , sigma =1.25 ,r_cut =1.25* 2**(1.0/6.0))
polymer_brush.py:097  |  slj.pair_coeff.set('Solvent','Solvent', epsilon = 0, sigma = 1.0)
polymer_brush.py:098  |  slj.pair_coeff.set('Solvent','B', epsilon = 0, sigma = 1.0)
polymer_brush.py:099  |  slj.pair_coeff.set('Solvent','C', epsilon = 0, sigma = 1.0)
polymer_brush.py:100  |  slj.pair_coeff.set('Solvent','CH3_W1', epsilon = 0, sigma = 1.0)
polymer_brush.py:101  |  slj.pair_coeff.set('Solvent','CH3_W2', epsilon = 0, sigma = 1.0)
polymer_brush.py:102  |  slj.pair_coeff.set('Solvent','SolvTail', epsilon = 0, sigma = 1.0)
polymer_brush.py:103  |  slj.pair_coeff.set('W1','W2', epsilon = 0 , sigma =1.0)
polymer_brush.py:104  |  slj.pair_coeff.set('W1','W1', epsilon = 0 , sigma =1.0)
polymer_brush.py:105  |  slj.pair_coeff.set('W2','W2', epsilon = 0 , sigma =1.0)
polymer_brush.py:106  |  slj.pair_coeff.set('W1','B', epsilon = 1.0 , sigma =1.25 ,r_cut =1.25* 2**(1.0/6.0))
polymer_brush.py:107  |  slj.pair_coeff.set('W1','C', epsilon = 1.0 , sigma =1.25 ,r_cut =1.25* 2**(1.0/6.0))
polymer_brush.py:108  |  slj.pair_coeff.set('W2','B', epsilon = 1.0 , sigma =1.25 ,r_cut =1.25* 2**(1.0/6.0))
polymer_brush.py:109  |  slj.pair_coeff.set('W2','C', epsilon = 1.0 , sigma =1.25 ,r_cut =1.25* 2**(1.0/6.0))
polymer_brush.py:110  |  slj.pair_coeff.set('W1','CH3_W1', epsilon = 1.0 , sigma =1.25 ,r_cut =1.25* 2**(1.0/6.0))
polymer_brush.py:111  |  slj.pair_coeff.set('W1','CH3_W2', epsilon = 1.0 , sigma =1.25 ,r_cut =1.25* 2**(1.0/6.0))
polymer_brush.py:112  |  slj.pair_coeff.set('W2','CH3_W1', epsilon = 1.0 , sigma =1.25 ,r_cut =1.25* 2**(1.0/6.0))
polymer_brush.py:113  |  slj.pair_coeff.set('W2','CH3_W2', epsilon = 1.0 , sigma =1.25 ,r_cut =1.25* 2**(1.0/6.0))
polymer_brush.py:114  |  slj.pair_coeff.set('W1','SolvTail', epsilon = 1.0 , sigma =1.25 ,r_cut =1.25* 2**(1.0/6.0))
polymer_brush.py:115  |  slj.pair_coeff.set('W2','SolvTail', epsilon = 1.0 , sigma =1.25 ,r_cut =1.25* 2**(1.0/6.0))
polymer_brush.py:116  |  slj.pair_coeff.set('B','B', epsilon = 0, sigma = 1.0)
polymer_brush.py:117  |  slj.pair_coeff.set('C','C', epsilon = 0, sigma = 1.0)
polymer_brush.py:118  |  slj.pair_coeff.set('B','C', epsilon = 0, sigma = 1.0)
polymer_brush.py:119  |  slj.pair_coeff.set('B','CH3_W1', epsilon = 0, sigma = 1.0)
polymer_brush.py:120  |  slj.pair_coeff.set('B','CH3_W2', epsilon = 0, sigma = 1.0)
polymer_brush.py:121  |  slj.pair_coeff.set('B','SolvTail', epsilon = 0, sigma = 1.0)
polymer_brush.py:122  |  slj.pair_coeff.set('C','CH3_W1', epsilon = 0, sigma = 1.0)
polymer_brush.py:123  |  slj.pair_coeff.set('C','CH3_W2', epsilon = 0, sigma = 1.0)
polymer_brush.py:124  |  slj.pair_coeff.set('C','SolvTail', epsilon = 0, sigma = 1.0)
polymer_brush.py:125  |  slj.pair_coeff.set('CH3_W1','CH3_W1', epsilon = 0, sigma = 1.0)
polymer_brush.py:126  |  slj.pair_coeff.set('CH3_W1','CH3_W2', epsilon = 0, sigma = 1.0)
polymer_brush.py:127  |  slj.pair_coeff.set('CH3_W2','CH3_W2', epsilon = 0, sigma = 1.0)
polymer_brush.py:128  |  slj.pair_coeff.set('CH3_W1','SolvTail', epsilon = 0, sigma = 1.0)
polymer_brush.py:129  |  slj.pair_coeff.set('CH3_W2','SolvTail', epsilon = 0, sigma = 1.0)
polymer_brush.py:130  |  slj.pair_coeff.set('SolvTail','SolvTail', epsilon = 0, sigma = 1.0)
polymer_brush.py:133  |  harmonicO_O= bond.harmonic(name = 'O-O-bond')
polymer_brush.py:135  |  harmonicO_O.bond_coeff.set('oleic', k=9892.9362 , r0=0.5)
polymer_brush.py:138  |  harmonicO_O.bond_coeff.set('wall', k=9892.9362, r0=1.25)
polymer_brush.py:141  |  angleWO = angle.harmonic()
polymer_brush.py:142  |  angleWO.set_coeff('W-O' , k = 201.2878 , t0= 2.5307)
polymer_brush.py:143  |  angleWO.set_coeff('O-O' , k = 201.2878 , t0= 1.92)
polymer_brush.py:144  |  angleWO.set_coeff('kink' , k = 1000.2878 , t0= 2.8)
polymer_brush.py:150  |  dihedralField = dihedral.harmonic()
polymer_brush.py:151  |  dihedralField.set_coeff('DihedralW1' , k = 2.6838 , d=1 , n= 1)
polymer_brush.py:152  |  dihedralField.set_coeff('DihedralW2' , k = 1.4543 , d=-1 , n= 2)
polymer_brush.py:153  |  dihedralField.set_coeff('DihedralW3' , k =5.4347 , d=1 , n= 3)
polymer_brush.py:154  |  dihedralField.set_coeff('Dihedral1' , k =2.6838 , d=1 , n= 1)
polymer_brush.py:155  |  dihedralField.set_coeff('Dihedral2' , k = 1.4543 , d=-1 , n= 2)
polymer_brush.py:156  |  dihedralField.set_coeff('Dihedral3' , k =5.4347 , d=1 , n= 3)
polymer_brush.py:158  |  integrate.mode_standard(dt= 0.005)
polymer_brush.py:160  |  integrator=integrate.nve(group=typeAll , limit=0.01 )
polymer_brush.py:161  |  zeroer = update.zero_momentum(period = 1)
polymer_brush.py:164  |  run(200)
notice(2): -- Neighborlist exclusion statistics -- :
notice(2): Particles with 1 exclusions             : 20480
notice(2): Particles with 2 exclusions             : 90880
notice(2): Neighbors included by diameter          : yes
notice(2): Neighbors excluded when in the same body: no
** starting run **
Time 00:00:02 | Step 200 / 200 | TPS 164.678 | ETA 00:00:00
Average TPS: 164.67
---------
-- Neighborlist stats:
9 normal updates / 1 forced updates / 0 dangerous updates
n_neigh_min: 5 / n_neigh_max: 141 / n_neigh_avg: 84.021
shortest rebuild period: 21
-- Cell list stats:
Dimension: 20, 20, 8
n_min    : 0 / n_max: 121 / n_avg: 34.8
** run complete **
polymer_brush.py:165  |  zeroer.disable()
polymer_brush.py:167  |  integrator.disable()
polymer_brush.py:169  |  integrator=integrate.npt(group=typeAll , tau=1.0 , T= 1.0 , tauP = 1.2 , P = 0.00078 , x=False , y = False , z = True , rescale_all=True )
polymer_brush.py:172  |  run(1e4, profile=True, limit_hours=1)
** starting run **
Time 00:00:12 | Step 4541 / 10200 | TPS 433.774 | ETA 00:00:13
Time 00:00:22 | Step 9447 / 10200 | TPS 490.28 | ETA 00:00:01
Time 00:00:23 | Step 10200 / 10200 | TPS 505.733 | ETA 00:00:00
Average TPS: 465.051
Simulation: 21.5030s | 100.000% 
        Bond harmonic:      0.3249s |  1.511% 
                update bond table:  0.0089s |  0.041% 
                Self:               0.3160s |  1.470% 
        Harmonic Angle:     0.5382s |  2.503% 
        Harmonic Dihedral:  1.4184s |  6.596% 
        Integrate:          1.9546s |  9.090% 
                NPT step 1:  0.1573s |  0.731% 
                        Thermo:  0.0008s |  0.004% 
                        Self:    0.1564s |  0.728% 
                NPT step 2:  0.9158s |  4.259% 
                        Thermo:  0.5927s |  2.756% 
                        Self:    0.3231s |  1.503% 
                Net force:   0.8287s |  3.854% 
                Self:        0.0529s |  0.246% 
        Neighbor:           9.5925s | 44.610% 
                Cell:        0.3192s |  1.485% 
                        compute:  0.0584s |  0.272% 
                        init:     0.2220s |  1.032% 
                        Self:     0.0388s |  0.180% 
                compute:     5.3464s | 24.863% 
                dist-check:  0.1953s |  0.908% 
                filter:      3.2940s | 15.319% 
                head-list:   0.0795s |  0.370% 
                update-ex:   0.0007s |  0.003% 
                Self:        0.3574s |  1.662% 
        Pair lj:            3.4401s | 15.998% 
        Pair slj:           4.1039s | 19.085% 
        SFCPack:            0.0083s |  0.039% 
        Self:               0.1221s |  0.568% 
---------
-- Neighborlist stats:
1166 normal updates / 34 forced updates / 0 dangerous updates
n_neigh_min: 3 / n_neigh_max: 146 / n_neigh_avg: 81.00212
shortest rebuild period: 6
-- Cell list stats:
Dimension: 20, 20, 13
n_min    : 0 / n_max: 120 / n_avg: 21.41538
** run complete **










################################################################
Running: mpirun -n 2 python polymer_brush.py --mode=gpu --user=8
HOOMD-blue 1.3.3-unknown CUDA (7.5) SINGLE MPI SSE SSE2 SSE3 
Compiled: 03/06/2016
Copyright 2009-2016 The Regents of the University of Michigan.

All publications and presentations based on HOOMD-blue, including any reports
or published results obtained, in whole or in part, with HOOMD-blue, will
acknowledge its use according to the terms posted at the time of submission on:
http://codeblue.umich.edu/hoomd-blue/citations.html
-----
You are using HOOMD-blue. Read and cite the following:
* J A Anderson, C D Lorenz, and A Travesset. "General purpose molecular dynamics
  simulations fully implemented on graphics processing units", Journal of
  Computational Physics 227 (2008) 5342--5359
and
* J Glaser, T D Nguyen, J A Anderson, P Liu, F Spiga, J A Millan, D C Morse, and
  S C Glotzer. "Strong scaling of general-purpose molecular dynamics simulations
  on GPUs", Computer Physics Communications 192 (2015) 97--107
and
* http://codeblue.umich.edu/hoomd-blue
You can save these citations to file using cite.save().
-----
notice(2): This system is not compute exclusive, using local rank to select GPUs
notice(2): Unable to identify node local rank information
notice(2): Using global rank to select GPUs
HOOMD-blue is running on the following GPU(s):
Rank 0:  [0]  Tesla P100-PCIE-16GB  56 SM_6.0 @ 1.33 GHz, 16276 MiB DRAM
Rank 1:  [1]  Tesla P100-PCIE-16GB  56 SM_6.0 @ 1.33 GHz, 16276 MiB DRAM
polymer_brush.py:012  |  system=init.read_xml(filename='init.xml')
notice(2): Reading init.xml...
notice(2): --- hoomd_xml file read summary
notice(2): 1740 positions at timestep 0
notice(2): 1740 velocities
notice(2): 1740 masses
notice(2): 1740 diameters
notice(2): 5 particle types
notice(2): 1740 particle body values
notice(2): 1580 bonds
notice(2): 1420 angles
notice(2): 3780 dihedrals
notice(2): 1740 charges
HOOMD-blue is using domain decomposition: n_x = 1 n_y = 1 n_z = 2.
1 x 1 x 2 local grid on 1 nodes
notice(2): Group "all" created containing 1740 particles
polymer_brush.py:018  |  system.replicate(nx=rep, ny=rep, nz=1)
polymer_brush.py:019  |  typeW1=group.type('W1')
notice(2): Group "type W1" created containing 3840 particles
polymer_brush.py:020  |  typeW2=group.type('W2')
*Warning*: W2 does not exist in the system, creating an empty group
notice(2): Group "type W2" created containing 0 particles
notice(2): Group "Wall" created containing 3840 particles
polymer_brush.py:022  |  typeB= group.type('B')
notice(2): Group "type B" created containing 65280 particles
polymer_brush.py:023  |  typeSolvBackBone = group.type('Solvent')
notice(2): Group "type Solvent" created containing 25600 particles
polymer_brush.py:024  |  typeC= group.type('C')
*Warning*: C does not exist in the system, creating an empty group
notice(2): Group "type C" created containing 0 particles
polymer_brush.py:025  |  typeCH3_W1=group.type('CH3_W1')
notice(2): Group "type CH3_W1" created containing 3840 particles
polymer_brush.py:026  |  typeCH3_W2=group.type('CH3_W2')
*Warning*: CH3_W2 does not exist in the system, creating an empty group
notice(2): Group "type CH3_W2" created containing 0 particles
polymer_brush.py:027  |  typeSolvTail=group.type('SolvTail')
notice(2): Group "type SolvTail" created containing 12800 particles
notice(2): Group "BCH3-particles" created containing 69120 particles
notice(2): Group "CCH3-particles" created containing 0 particles
notice(2): Group "all-solvent" created containing 38400 particles
notice(2): Group "bc-particles" created containing 69120 particles
notice(2): Group "typeAll" created containing 107520 particles
notice(2): Group "typeNPT" created containing 111360 particles
Number of polymeric particles 107520
polymer_brush.py:044  |  lj = pair.lj(r_cut=3.3)
nlist.py:1051  |          globals.neighbor_list = cell();
polymer_brush.py:052  |  lj.pair_coeff.set('Solvent','W1' ,epsilon=0 , sigma=1.3144)
polymer_brush.py:053  |  lj.pair_coeff.set('Solvent','W2' ,epsilon=0 , sigma=1.3144)
polymer_brush.py:054  |  lj.pair_coeff.set('Solvent','Solvent' ,epsilon=1.0*tether_bulk , sigma=1.3144)
polymer_brush.py:055  |  lj.pair_coeff.set('Solvent','B' ,epsilon=tether_bulk , sigma=1.3144)
polymer_brush.py:056  |  lj.pair_coeff.set('Solvent','C' ,epsilon=tether_bulk , sigma=1.3144)
polymer_brush.py:057  |  lj.pair_coeff.set('Solvent','CH3_W1' ,epsilon=bulk_tails , sigma=1.3144)
polymer_brush.py:058  |  lj.pair_coeff.set('Solvent','CH3_W2' ,epsilon=bulk_tails , sigma=1.3144)
polymer_brush.py:059  |  lj.pair_coeff.set('Solvent','SolvTail' ,epsilon=bulk_tails , sigma=1.3144)
polymer_brush.py:060  |  lj.pair_coeff.set('B','B' ,epsilon=tether_bulk , sigma=1.3144)
polymer_brush.py:061  |  lj.pair_coeff.set('C','C' ,epsilon=tether_bulk , sigma=1.3144)
polymer_brush.py:062  |  lj.pair_coeff.set('B','C' ,epsilon=tether_bulk , sigma=1.3144)
polymer_brush.py:063  |  lj.pair_coeff.set('B','CH3_W1' ,epsilon=bulk_tails , sigma=1.3144)
polymer_brush.py:064  |  lj.pair_coeff.set('B','CH3_W2' ,epsilon=bulk_tails , sigma=1.3144)
polymer_brush.py:065  |  lj.pair_coeff.set('C','CH3_W1' ,epsilon=bulk_tails , sigma=1.3144)
polymer_brush.py:066  |  lj.pair_coeff.set('C','CH3_W2' ,epsilon=bulk_tails , sigma=1.3144)
polymer_brush.py:067  |  lj.pair_coeff.set('CH3_W1','CH3_W1' ,epsilon=tails , sigma=1.3144)
polymer_brush.py:068  |  lj.pair_coeff.set('CH3_W1','CH3_W2' ,epsilon=tails , sigma=1.3144)
polymer_brush.py:069  |  lj.pair_coeff.set('CH3_W2' ,'CH3_W2' ,epsilon=tails , sigma=1.3144)
polymer_brush.py:071  |  lj.pair_coeff.set('B','SolvTail' ,epsilon=bulk_tails , sigma=1.3144)
polymer_brush.py:072  |  lj.pair_coeff.set('C','SolvTail' ,epsilon=bulk_tails , sigma=1.3144)
polymer_brush.py:073  |  lj.pair_coeff.set('CH3_W1','SolvTail' ,epsilon=tails , sigma=1.3144)
polymer_brush.py:074  |  lj.pair_coeff.set('CH3_W2','SolvTail' ,epsilon=tails , sigma=1.3144)
polymer_brush.py:075  |  lj.pair_coeff.set('SolvTail' ,'SolvTail' ,epsilon=tails , sigma=1.3144)
polymer_brush.py:077  |  lj.pair_coeff.set('B','C' ,epsilon=0.01 , sigma=2.62 , alpha=0.0)
polymer_brush.py:078  |  lj.pair_coeff.set('W1','W2' ,epsilon=0.0 , sigma=1.0)
polymer_brush.py:079  |  lj.pair_coeff.set('W1','W1' ,epsilon=0.0 , sigma=1.0)
polymer_brush.py:080  |  lj.pair_coeff.set('W1','B' ,epsilon=0.0 , sigma = 1.0)
polymer_brush.py:081  |  lj.pair_coeff.set('W1','C' ,epsilon=0.0 , sigma = 1.0)
polymer_brush.py:082  |  lj.pair_coeff.set('W2','W2' ,epsilon=0.0 , sigma=1.0)
polymer_brush.py:083  |  lj.pair_coeff.set('W2','B' ,epsilon=0.0 , sigma = 1.0)
polymer_brush.py:084  |  lj.pair_coeff.set('W2','C' ,epsilon=0.0 , sigma = 1.0)
polymer_brush.py:085  |  lj.pair_coeff.set('W1','CH3_W1' ,epsilon=0.0 , sigma = 1.0)
polymer_brush.py:086  |  lj.pair_coeff.set('W1','CH3_W2' ,epsilon=0.0 , sigma = 1.0)
polymer_brush.py:087  |  lj.pair_coeff.set('W1','SolvTail' ,epsilon=0.0 , sigma = 1.0)
polymer_brush.py:088  |  lj.pair_coeff.set('W2','CH3_W1' ,epsilon=0.0 , sigma = 1.0)
polymer_brush.py:089  |  lj.pair_coeff.set('W2','CH3_W2' ,epsilon=0.0 , sigma = 1.0)
polymer_brush.py:090  |  lj.pair_coeff.set('W2','SolvTail' ,epsilon=0.0 , sigma = 1.0)
polymer_brush.py:091  |  lj.pair_coeff.set('A','C' ,epsilon=0.0 , sigma=1.0 , alpha=0.0)
polymer_brush.py:093  |  slj = pair.slj(r_cut= 1.3)
notice(2): Notice: slj set d_max=2.0
polymer_brush.py:094  |  slj.set_params(mode="shift")
pair.py:886  |          pair.set_params(self, mode=mode);
polymer_brush.py:095  |  slj.pair_coeff.set('W2','Solvent', epsilon = 1.0 , sigma =1.25 ,r_cut =1.25* 2**(1.0/6.0))
polymer_brush.py:096  |  slj.pair_coeff.set('W1','Solvent', epsilon = 1.0 , sigma =1.25 ,r_cut =1.25* 2**(1.0/6.0))
polymer_brush.py:097  |  slj.pair_coeff.set('Solvent','Solvent', epsilon = 0, sigma = 1.0)
polymer_brush.py:098  |  slj.pair_coeff.set('Solvent','B', epsilon = 0, sigma = 1.0)
polymer_brush.py:099  |  slj.pair_coeff.set('Solvent','C', epsilon = 0, sigma = 1.0)
polymer_brush.py:100  |  slj.pair_coeff.set('Solvent','CH3_W1', epsilon = 0, sigma = 1.0)
polymer_brush.py:101  |  slj.pair_coeff.set('Solvent','CH3_W2', epsilon = 0, sigma = 1.0)
polymer_brush.py:102  |  slj.pair_coeff.set('Solvent','SolvTail', epsilon = 0, sigma = 1.0)
polymer_brush.py:103  |  slj.pair_coeff.set('W1','W2', epsilon = 0 , sigma =1.0)
polymer_brush.py:104  |  slj.pair_coeff.set('W1','W1', epsilon = 0 , sigma =1.0)
polymer_brush.py:105  |  slj.pair_coeff.set('W2','W2', epsilon = 0 , sigma =1.0)
polymer_brush.py:106  |  slj.pair_coeff.set('W1','B', epsilon = 1.0 , sigma =1.25 ,r_cut =1.25* 2**(1.0/6.0))
polymer_brush.py:107  |  slj.pair_coeff.set('W1','C', epsilon = 1.0 , sigma =1.25 ,r_cut =1.25* 2**(1.0/6.0))
polymer_brush.py:108  |  slj.pair_coeff.set('W2','B', epsilon = 1.0 , sigma =1.25 ,r_cut =1.25* 2**(1.0/6.0))
polymer_brush.py:109  |  slj.pair_coeff.set('W2','C', epsilon = 1.0 , sigma =1.25 ,r_cut =1.25* 2**(1.0/6.0))
polymer_brush.py:110  |  slj.pair_coeff.set('W1','CH3_W1', epsilon = 1.0 , sigma =1.25 ,r_cut =1.25* 2**(1.0/6.0))
polymer_brush.py:111  |  slj.pair_coeff.set('W1','CH3_W2', epsilon = 1.0 , sigma =1.25 ,r_cut =1.25* 2**(1.0/6.0))
polymer_brush.py:112  |  slj.pair_coeff.set('W2','CH3_W1', epsilon = 1.0 , sigma =1.25 ,r_cut =1.25* 2**(1.0/6.0))
polymer_brush.py:113  |  slj.pair_coeff.set('W2','CH3_W2', epsilon = 1.0 , sigma =1.25 ,r_cut =1.25* 2**(1.0/6.0))
polymer_brush.py:114  |  slj.pair_coeff.set('W1','SolvTail', epsilon = 1.0 , sigma =1.25 ,r_cut =1.25* 2**(1.0/6.0))
polymer_brush.py:115  |  slj.pair_coeff.set('W2','SolvTail', epsilon = 1.0 , sigma =1.25 ,r_cut =1.25* 2**(1.0/6.0))
polymer_brush.py:116  |  slj.pair_coeff.set('B','B', epsilon = 0, sigma = 1.0)
polymer_brush.py:117  |  slj.pair_coeff.set('C','C', epsilon = 0, sigma = 1.0)
polymer_brush.py:118  |  slj.pair_coeff.set('B','C', epsilon = 0, sigma = 1.0)
polymer_brush.py:119  |  slj.pair_coeff.set('B','CH3_W1', epsilon = 0, sigma = 1.0)
polymer_brush.py:120  |  slj.pair_coeff.set('B','CH3_W2', epsilon = 0, sigma = 1.0)
polymer_brush.py:121  |  slj.pair_coeff.set('B','SolvTail', epsilon = 0, sigma = 1.0)
polymer_brush.py:122  |  slj.pair_coeff.set('C','CH3_W1', epsilon = 0, sigma = 1.0)
polymer_brush.py:123  |  slj.pair_coeff.set('C','CH3_W2', epsilon = 0, sigma = 1.0)
polymer_brush.py:124  |  slj.pair_coeff.set('C','SolvTail', epsilon = 0, sigma = 1.0)
polymer_brush.py:125  |  slj.pair_coeff.set('CH3_W1','CH3_W1', epsilon = 0, sigma = 1.0)
polymer_brush.py:126  |  slj.pair_coeff.set('CH3_W1','CH3_W2', epsilon = 0, sigma = 1.0)
polymer_brush.py:127  |  slj.pair_coeff.set('CH3_W2','CH3_W2', epsilon = 0, sigma = 1.0)
polymer_brush.py:128  |  slj.pair_coeff.set('CH3_W1','SolvTail', epsilon = 0, sigma = 1.0)
polymer_brush.py:129  |  slj.pair_coeff.set('CH3_W2','SolvTail', epsilon = 0, sigma = 1.0)
polymer_brush.py:130  |  slj.pair_coeff.set('SolvTail','SolvTail', epsilon = 0, sigma = 1.0)
polymer_brush.py:133  |  harmonicO_O= bond.harmonic(name = 'O-O-bond')
polymer_brush.py:135  |  harmonicO_O.bond_coeff.set('oleic', k=9892.9362 , r0=0.5)
polymer_brush.py:138  |  harmonicO_O.bond_coeff.set('wall', k=9892.9362, r0=1.25)
polymer_brush.py:141  |  angleWO = angle.harmonic()
polymer_brush.py:142  |  angleWO.set_coeff('W-O' , k = 201.2878 , t0= 2.5307)
polymer_brush.py:143  |  angleWO.set_coeff('O-O' , k = 201.2878 , t0= 1.92)
polymer_brush.py:144  |  angleWO.set_coeff('kink' , k = 1000.2878 , t0= 2.8)
polymer_brush.py:150  |  dihedralField = dihedral.harmonic()
polymer_brush.py:151  |  dihedralField.set_coeff('DihedralW1' , k = 2.6838 , d=1 , n= 1)
polymer_brush.py:152  |  dihedralField.set_coeff('DihedralW2' , k = 1.4543 , d=-1 , n= 2)
polymer_brush.py:153  |  dihedralField.set_coeff('DihedralW3' , k =5.4347 , d=1 , n= 3)
polymer_brush.py:154  |  dihedralField.set_coeff('Dihedral1' , k =2.6838 , d=1 , n= 1)
polymer_brush.py:155  |  dihedralField.set_coeff('Dihedral2' , k = 1.4543 , d=-1 , n= 2)
polymer_brush.py:156  |  dihedralField.set_coeff('Dihedral3' , k =5.4347 , d=1 , n= 3)
polymer_brush.py:158  |  integrate.mode_standard(dt= 0.005)
polymer_brush.py:160  |  integrator=integrate.nve(group=typeAll , limit=0.01 )
polymer_brush.py:161  |  zeroer = update.zero_momentum(period = 1)
polymer_brush.py:164  |  run(200)
notice(2): -- Neighborlist exclusion statistics -- :
notice(2): Particles with 1 exclusions             : 20480
notice(2): Particles with 2 exclusions             : 90880
notice(2): Neighbors included by diameter          : yes
notice(2): Neighbors excluded when in the same body: no
** starting run **
Time 00:00:03 | Step 200 / 200 | TPS 130.649 | ETA 00:00:00
Average TPS: 130.646
---------
-- Neighborlist stats:
9 normal updates / 1 forced updates / 0 dangerous updates
n_neigh_min: 14 / n_neigh_max: 140 / n_neigh_avg: 91.809
shortest rebuild period: 21
-- Cell list stats:
Dimension: 20, 20, 5
n_min    : 8 / n_max: 135 / n_avg: 52.288
** run complete **
polymer_brush.py:165  |  zeroer.disable()
polymer_brush.py:167  |  integrator.disable()
polymer_brush.py:169  |  integrator=integrate.npt(group=typeAll , tau=1.0 , T= 1.0 , tauP = 1.2 , P = 0.00078 , x=False , y = False , z = True , rescale_all=True )
polymer_brush.py:172  |  run(1e4, profile=True, limit_hours=1)
** starting run **
Time 00:00:13 | Step 3657 / 10200 | TPS 345.592 | ETA 00:00:18
Time 00:00:23 | Step 7867 / 10200 | TPS 420.855 | ETA 00:00:05
Time 00:00:28 | Step 10200 / 10200 | TPS 440.341 | ETA 00:00:00
Average TPS: 395.183
Simulation: 25.3048s | 100.000% 
        Bond harmonic:      0.5843s |  2.309% 
                update bond table:  0.2894s |  1.144% 
                Self:               0.2949s |  1.165% 
        Harmonic Angle:     0.7738s |  3.058% 
        Harmonic Dihedral:  2.2679s |  8.962% 
        Integrate:          1.9408s |  7.670% 
                NPT step 1:  0.3407s |  1.347% 
                        Thermo:  0.0011s |  0.004% 
                        Self:    0.3396s |  1.342% 
                NPT step 2:  0.8292s |  3.277% 
                        Thermo:  0.4964s |  1.962% 
                        Self:    0.3328s |  1.315% 
                Net force:   0.6676s |  2.638% 
                Self:        0.1033s |  0.408% 
        Neighbor:           8.7325s | 34.509% 
                Cell:           0.1855s |  0.733% 
                        compute:  0.0584s |  0.231% 
                        init:     0.1047s |  0.414% 
                MPI allreduce:  0.0385s |  0.152% 
                compute:        4.8793s | 19.282% 
                filter:         3.3383s | 13.192% 
                head-list:      0.1885s |  0.745% 
                update-ex:      0.0236s |  0.093% 
                Self:           0.0789s |  0.312% 
        Pair lj:            3.0043s | 11.872% 
        Pair slj:           3.5743s | 14.125% 
        SFCPack:            0.0072s |  0.028% 
        comm_ghost_exch:    0.6818s |  2.694% 
                MPI send/recv:  0.1835s |  0.725% 4.56558 GiB/s 
                Self:           0.4983s |  1.969% 
        comm_ghost_update:  1.5036s |  5.942% 
                MPI send/recv:  0.7467s |  2.951% 5.83286 GiB/s 
                pack:           0.4284s |  1.693% 
                unpack:         0.2066s |  0.817% 
                Self:           0.1218s |  0.481% 
        comm_migrate:       1.4330s |  5.663% 
                MPI send/recv:  0.0674s |  0.266% 69.17196 MiB/s 
                angle:          0.3258s |  1.288% 
                        MPI send/recv:  0.0669s |  0.264% 54.80933 MiB/s 
                        Self:           0.2590s |  1.023% 
                bond:           0.2714s |  1.073% 
                        MPI send/recv:  0.0305s |  0.120% 62.66334 MiB/s 
                        Self:           0.2410s |  0.952% 
                dihedral:       0.4960s |  1.960% 
                        MPI send/recv:  0.0678s |  0.268% 235.11756 MiB/s 
                        Self:           0.4282s |  1.692% 
                pack:           0.1263s |  0.499% 
                unpack:         0.0197s |  0.078% 
                Self:           0.1264s |  0.500% 
        dist-check:         0.3074s |  1.215% 
        Self:               0.4938s |  1.952% 
---------
-- Neighborlist stats:
1172 normal updates / 34 forced updates / 0 dangerous updates
n_neigh_min: 3 / n_neigh_max: 150 / n_neigh_avg: 98.90684
shortest rebuild period: 5
-- Cell list stats:
Dimension: 20, 20, 7
n_min    : 0 / n_max: 131 / n_avg: 31.12464
** run complete **










################################################################
Running: mpirun -n 4 python polymer_brush.py --mode=gpu --user=8
HOOMD-blue 1.3.3-unknown CUDA (7.5) SINGLE MPI SSE SSE2 SSE3 
Compiled: 03/06/2016
Copyright 2009-2016 The Regents of the University of Michigan.

All publications and presentations based on HOOMD-blue, including any reports
or published results obtained, in whole or in part, with HOOMD-blue, will
acknowledge its use according to the terms posted at the time of submission on:
http://codeblue.umich.edu/hoomd-blue/citations.html
-----
You are using HOOMD-blue. Read and cite the following:
* J A Anderson, C D Lorenz, and A Travesset. "General purpose molecular dynamics
  simulations fully implemented on graphics processing units", Journal of
  Computational Physics 227 (2008) 5342--5359
and
* J Glaser, T D Nguyen, J A Anderson, P Liu, F Spiga, J A Millan, D C Morse, and
  S C Glotzer. "Strong scaling of general-purpose molecular dynamics simulations
  on GPUs", Computer Physics Communications 192 (2015) 97--107
and
* http://codeblue.umich.edu/hoomd-blue
You can save these citations to file using cite.save().
-----
notice(2): This system is not compute exclusive, using local rank to select GPUs
notice(2): Unable to identify node local rank information
notice(2): Using global rank to select GPUs
HOOMD-blue is running on the following GPU(s):
Rank 0:  [0]  Tesla P100-PCIE-16GB  56 SM_6.0 @ 1.33 GHz, 16276 MiB DRAM
Rank 1:  [1]  Tesla P100-PCIE-16GB  56 SM_6.0 @ 1.33 GHz, 16276 MiB DRAM
Rank 2:  [2]  Tesla P100-PCIE-16GB  56 SM_6.0 @ 1.33 GHz, 16276 MiB DRAM
Rank 3:  [3]  Tesla P100-PCIE-16GB  56 SM_6.0 @ 1.33 GHz, 16276 MiB DRAM
polymer_brush.py:012  |  system=init.read_xml(filename='init.xml')
notice(2): Reading init.xml...
notice(2): --- hoomd_xml file read summary
notice(2): 1740 positions at timestep 0
notice(2): 1740 velocities
notice(2): 1740 masses
notice(2): 1740 diameters
notice(2): 5 particle types
notice(2): 1740 particle body values
notice(2): 1580 bonds
notice(2): 1420 angles
notice(2): 3780 dihedrals
notice(2): 1740 charges
HOOMD-blue is using domain decomposition: n_x = 1 n_y = 1 n_z = 4.
1 x 1 x 4 local grid on 1 nodes
notice(2): Group "all" created containing 1740 particles
polymer_brush.py:018  |  system.replicate(nx=rep, ny=rep, nz=1)
polymer_brush.py:019  |  typeW1=group.type('W1')
notice(2): Group "type W1" created containing 3840 particles
polymer_brush.py:020  |  typeW2=group.type('W2')
*Warning*: W2 does not exist in the system, creating an empty group
notice(2): Group "type W2" created containing 0 particles
notice(2): Group "Wall" created containing 3840 particles
polymer_brush.py:022  |  typeB= group.type('B')
notice(2): Group "type B" created containing 65280 particles
polymer_brush.py:023  |  typeSolvBackBone = group.type('Solvent')
notice(2): Group "type Solvent" created containing 25600 particles
polymer_brush.py:024  |  typeC= group.type('C')
*Warning*: C does not exist in the system, creating an empty group
notice(2): Group "type C" created containing 0 particles
polymer_brush.py:025  |  typeCH3_W1=group.type('CH3_W1')
notice(2): Group "type CH3_W1" created containing 3840 particles
polymer_brush.py:026  |  typeCH3_W2=group.type('CH3_W2')
*Warning*: CH3_W2 does not exist in the system, creating an empty group
notice(2): Group "type CH3_W2" created containing 0 particles
polymer_brush.py:027  |  typeSolvTail=group.type('SolvTail')
notice(2): Group "type SolvTail" created containing 12800 particles
notice(2): Group "BCH3-particles" created containing 69120 particles
notice(2): Group "CCH3-particles" created containing 0 particles
notice(2): Group "all-solvent" created containing 38400 particles
notice(2): Group "bc-particles" created containing 69120 particles
notice(2): Group "typeAll" created containing 107520 particles
notice(2): Group "typeNPT" created containing 111360 particles
Number of polymeric particles 107520
polymer_brush.py:044  |  lj = pair.lj(r_cut=3.3)
nlist.py:1051  |          globals.neighbor_list = cell();
polymer_brush.py:052  |  lj.pair_coeff.set('Solvent','W1' ,epsilon=0 , sigma=1.3144)
polymer_brush.py:053  |  lj.pair_coeff.set('Solvent','W2' ,epsilon=0 , sigma=1.3144)
polymer_brush.py:054  |  lj.pair_coeff.set('Solvent','Solvent' ,epsilon=1.0*tether_bulk , sigma=1.3144)
polymer_brush.py:055  |  lj.pair_coeff.set('Solvent','B' ,epsilon=tether_bulk , sigma=1.3144)
polymer_brush.py:056  |  lj.pair_coeff.set('Solvent','C' ,epsilon=tether_bulk , sigma=1.3144)
polymer_brush.py:057  |  lj.pair_coeff.set('Solvent','CH3_W1' ,epsilon=bulk_tails , sigma=1.3144)
polymer_brush.py:058  |  lj.pair_coeff.set('Solvent','CH3_W2' ,epsilon=bulk_tails , sigma=1.3144)
polymer_brush.py:059  |  lj.pair_coeff.set('Solvent','SolvTail' ,epsilon=bulk_tails , sigma=1.3144)
polymer_brush.py:060  |  lj.pair_coeff.set('B','B' ,epsilon=tether_bulk , sigma=1.3144)
polymer_brush.py:061  |  lj.pair_coeff.set('C','C' ,epsilon=tether_bulk , sigma=1.3144)
polymer_brush.py:062  |  lj.pair_coeff.set('B','C' ,epsilon=tether_bulk , sigma=1.3144)
polymer_brush.py:063  |  lj.pair_coeff.set('B','CH3_W1' ,epsilon=bulk_tails , sigma=1.3144)
polymer_brush.py:064  |  lj.pair_coeff.set('B','CH3_W2' ,epsilon=bulk_tails , sigma=1.3144)
polymer_brush.py:065  |  lj.pair_coeff.set('C','CH3_W1' ,epsilon=bulk_tails , sigma=1.3144)
polymer_brush.py:066  |  lj.pair_coeff.set('C','CH3_W2' ,epsilon=bulk_tails , sigma=1.3144)
polymer_brush.py:067  |  lj.pair_coeff.set('CH3_W1','CH3_W1' ,epsilon=tails , sigma=1.3144)
polymer_brush.py:068  |  lj.pair_coeff.set('CH3_W1','CH3_W2' ,epsilon=tails , sigma=1.3144)
polymer_brush.py:069  |  lj.pair_coeff.set('CH3_W2' ,'CH3_W2' ,epsilon=tails , sigma=1.3144)
polymer_brush.py:071  |  lj.pair_coeff.set('B','SolvTail' ,epsilon=bulk_tails , sigma=1.3144)
polymer_brush.py:072  |  lj.pair_coeff.set('C','SolvTail' ,epsilon=bulk_tails , sigma=1.3144)
polymer_brush.py:073  |  lj.pair_coeff.set('CH3_W1','SolvTail' ,epsilon=tails , sigma=1.3144)
polymer_brush.py:074  |  lj.pair_coeff.set('CH3_W2','SolvTail' ,epsilon=tails , sigma=1.3144)
polymer_brush.py:075  |  lj.pair_coeff.set('SolvTail' ,'SolvTail' ,epsilon=tails , sigma=1.3144)
polymer_brush.py:077  |  lj.pair_coeff.set('B','C' ,epsilon=0.01 , sigma=2.62 , alpha=0.0)
polymer_brush.py:078  |  lj.pair_coeff.set('W1','W2' ,epsilon=0.0 , sigma=1.0)
polymer_brush.py:079  |  lj.pair_coeff.set('W1','W1' ,epsilon=0.0 , sigma=1.0)
polymer_brush.py:080  |  lj.pair_coeff.set('W1','B' ,epsilon=0.0 , sigma = 1.0)
polymer_brush.py:081  |  lj.pair_coeff.set('W1','C' ,epsilon=0.0 , sigma = 1.0)
polymer_brush.py:082  |  lj.pair_coeff.set('W2','W2' ,epsilon=0.0 , sigma=1.0)
polymer_brush.py:083  |  lj.pair_coeff.set('W2','B' ,epsilon=0.0 , sigma = 1.0)
polymer_brush.py:084  |  lj.pair_coeff.set('W2','C' ,epsilon=0.0 , sigma = 1.0)
polymer_brush.py:085  |  lj.pair_coeff.set('W1','CH3_W1' ,epsilon=0.0 , sigma = 1.0)
polymer_brush.py:086  |  lj.pair_coeff.set('W1','CH3_W2' ,epsilon=0.0 , sigma = 1.0)
polymer_brush.py:087  |  lj.pair_coeff.set('W1','SolvTail' ,epsilon=0.0 , sigma = 1.0)
polymer_brush.py:088  |  lj.pair_coeff.set('W2','CH3_W1' ,epsilon=0.0 , sigma = 1.0)
polymer_brush.py:089  |  lj.pair_coeff.set('W2','CH3_W2' ,epsilon=0.0 , sigma = 1.0)
polymer_brush.py:090  |  lj.pair_coeff.set('W2','SolvTail' ,epsilon=0.0 , sigma = 1.0)
polymer_brush.py:091  |  lj.pair_coeff.set('A','C' ,epsilon=0.0 , sigma=1.0 , alpha=0.0)
polymer_brush.py:093  |  slj = pair.slj(r_cut= 1.3)
notice(2): Notice: slj set d_max=2.0
polymer_brush.py:094  |  slj.set_params(mode="shift")
pair.py:886  |          pair.set_params(self, mode=mode);
polymer_brush.py:095  |  slj.pair_coeff.set('W2','Solvent', epsilon = 1.0 , sigma =1.25 ,r_cut =1.25* 2**(1.0/6.0))
polymer_brush.py:096  |  slj.pair_coeff.set('W1','Solvent', epsilon = 1.0 , sigma =1.25 ,r_cut =1.25* 2**(1.0/6.0))
polymer_brush.py:097  |  slj.pair_coeff.set('Solvent','Solvent', epsilon = 0, sigma = 1.0)
polymer_brush.py:098  |  slj.pair_coeff.set('Solvent','B', epsilon = 0, sigma = 1.0)
polymer_brush.py:099  |  slj.pair_coeff.set('Solvent','C', epsilon = 0, sigma = 1.0)
polymer_brush.py:100  |  slj.pair_coeff.set('Solvent','CH3_W1', epsilon = 0, sigma = 1.0)
polymer_brush.py:101  |  slj.pair_coeff.set('Solvent','CH3_W2', epsilon = 0, sigma = 1.0)
polymer_brush.py:102  |  slj.pair_coeff.set('Solvent','SolvTail', epsilon = 0, sigma = 1.0)
polymer_brush.py:103  |  slj.pair_coeff.set('W1','W2', epsilon = 0 , sigma =1.0)
polymer_brush.py:104  |  slj.pair_coeff.set('W1','W1', epsilon = 0 , sigma =1.0)
polymer_brush.py:105  |  slj.pair_coeff.set('W2','W2', epsilon = 0 , sigma =1.0)
polymer_brush.py:106  |  slj.pair_coeff.set('W1','B', epsilon = 1.0 , sigma =1.25 ,r_cut =1.25* 2**(1.0/6.0))
polymer_brush.py:107  |  slj.pair_coeff.set('W1','C', epsilon = 1.0 , sigma =1.25 ,r_cut =1.25* 2**(1.0/6.0))
polymer_brush.py:108  |  slj.pair_coeff.set('W2','B', epsilon = 1.0 , sigma =1.25 ,r_cut =1.25* 2**(1.0/6.0))
polymer_brush.py:109  |  slj.pair_coeff.set('W2','C', epsilon = 1.0 , sigma =1.25 ,r_cut =1.25* 2**(1.0/6.0))
polymer_brush.py:110  |  slj.pair_coeff.set('W1','CH3_W1', epsilon = 1.0 , sigma =1.25 ,r_cut =1.25* 2**(1.0/6.0))
polymer_brush.py:111  |  slj.pair_coeff.set('W1','CH3_W2', epsilon = 1.0 , sigma =1.25 ,r_cut =1.25* 2**(1.0/6.0))
polymer_brush.py:112  |  slj.pair_coeff.set('W2','CH3_W1', epsilon = 1.0 , sigma =1.25 ,r_cut =1.25* 2**(1.0/6.0))
polymer_brush.py:113  |  slj.pair_coeff.set('W2','CH3_W2', epsilon = 1.0 , sigma =1.25 ,r_cut =1.25* 2**(1.0/6.0))
polymer_brush.py:114  |  slj.pair_coeff.set('W1','SolvTail', epsilon = 1.0 , sigma =1.25 ,r_cut =1.25* 2**(1.0/6.0))
polymer_brush.py:115  |  slj.pair_coeff.set('W2','SolvTail', epsilon = 1.0 , sigma =1.25 ,r_cut =1.25* 2**(1.0/6.0))
polymer_brush.py:116  |  slj.pair_coeff.set('B','B', epsilon = 0, sigma = 1.0)
polymer_brush.py:117  |  slj.pair_coeff.set('C','C', epsilon = 0, sigma = 1.0)
polymer_brush.py:118  |  slj.pair_coeff.set('B','C', epsilon = 0, sigma = 1.0)
polymer_brush.py:119  |  slj.pair_coeff.set('B','CH3_W1', epsilon = 0, sigma = 1.0)
polymer_brush.py:120  |  slj.pair_coeff.set('B','CH3_W2', epsilon = 0, sigma = 1.0)
polymer_brush.py:121  |  slj.pair_coeff.set('B','SolvTail', epsilon = 0, sigma = 1.0)
polymer_brush.py:122  |  slj.pair_coeff.set('C','CH3_W1', epsilon = 0, sigma = 1.0)
polymer_brush.py:123  |  slj.pair_coeff.set('C','CH3_W2', epsilon = 0, sigma = 1.0)
polymer_brush.py:124  |  slj.pair_coeff.set('C','SolvTail', epsilon = 0, sigma = 1.0)
polymer_brush.py:125  |  slj.pair_coeff.set('CH3_W1','CH3_W1', epsilon = 0, sigma = 1.0)
polymer_brush.py:126  |  slj.pair_coeff.set('CH3_W1','CH3_W2', epsilon = 0, sigma = 1.0)
polymer_brush.py:127  |  slj.pair_coeff.set('CH3_W2','CH3_W2', epsilon = 0, sigma = 1.0)
polymer_brush.py:128  |  slj.pair_coeff.set('CH3_W1','SolvTail', epsilon = 0, sigma = 1.0)
polymer_brush.py:129  |  slj.pair_coeff.set('CH3_W2','SolvTail', epsilon = 0, sigma = 1.0)
polymer_brush.py:130  |  slj.pair_coeff.set('SolvTail','SolvTail', epsilon = 0, sigma = 1.0)
polymer_brush.py:133  |  harmonicO_O= bond.harmonic(name = 'O-O-bond')
polymer_brush.py:135  |  harmonicO_O.bond_coeff.set('oleic', k=9892.9362 , r0=0.5)
polymer_brush.py:138  |  harmonicO_O.bond_coeff.set('wall', k=9892.9362, r0=1.25)
polymer_brush.py:141  |  angleWO = angle.harmonic()
polymer_brush.py:142  |  angleWO.set_coeff('W-O' , k = 201.2878 , t0= 2.5307)
polymer_brush.py:143  |  angleWO.set_coeff('O-O' , k = 201.2878 , t0= 1.92)
polymer_brush.py:144  |  angleWO.set_coeff('kink' , k = 1000.2878 , t0= 2.8)
polymer_brush.py:150  |  dihedralField = dihedral.harmonic()
polymer_brush.py:151  |  dihedralField.set_coeff('DihedralW1' , k = 2.6838 , d=1 , n= 1)
polymer_brush.py:152  |  dihedralField.set_coeff('DihedralW2' , k = 1.4543 , d=-1 , n= 2)
polymer_brush.py:153  |  dihedralField.set_coeff('DihedralW3' , k =5.4347 , d=1 , n= 3)
polymer_brush.py:154  |  dihedralField.set_coeff('Dihedral1' , k =2.6838 , d=1 , n= 1)
polymer_brush.py:155  |  dihedralField.set_coeff('Dihedral2' , k = 1.4543 , d=-1 , n= 2)
polymer_brush.py:156  |  dihedralField.set_coeff('Dihedral3' , k =5.4347 , d=1 , n= 3)
polymer_brush.py:158  |  integrate.mode_standard(dt= 0.005)
polymer_brush.py:160  |  integrator=integrate.nve(group=typeAll , limit=0.01 )
polymer_brush.py:161  |  zeroer = update.zero_momentum(period = 1)
polymer_brush.py:164  |  run(200)
notice(2): -- Neighborlist exclusion statistics -- :
notice(2): Particles with 1 exclusions             : 20480
notice(2): Particles with 2 exclusions             : 90880
notice(2): Neighbors included by diameter          : yes
notice(2): Neighbors excluded when in the same body: no
** starting run **
Time 00:00:03 | Step 200 / 200 | TPS 123.577 | ETA 00:00:00
Average TPS: 123.574
---------
-- Neighborlist stats:
9 normal updates / 1 forced updates / 0 dangerous updates
n_neigh_min: 60 / n_neigh_max: 140 / n_neigh_avg: 110.134
shortest rebuild period: 21
-- Cell list stats:
Dimension: 20, 20, 3
n_min    : 8 / n_max: 169 / n_avg: 68.64
** run complete **
polymer_brush.py:165  |  zeroer.disable()
polymer_brush.py:167  |  integrator.disable()
polymer_brush.py:169  |  integrator=integrate.npt(group=typeAll , tau=1.0 , T= 1.0 , tauP = 1.2 , P = 0.00078 , x=False , y = False , z = True , rescale_all=True )
polymer_brush.py:172  |  run(1e4, profile=True, limit_hours=1)
** starting run **
Time 00:00:13 | Step 3451 / 10200 | TPS 324.823 | ETA 00:00:20
Time 00:00:23 | Step 7619 / 10200 | TPS 416.758 | ETA 00:00:06
Time 00:00:29 | Step 10200 / 10200 | TPS 419.411 | ETA 00:00:00
Average TPS: 382.213
Simulation: 26.1635s | 100.000% 
        Bond harmonic:      0.5559s |  2.125% 
                update bond table:  0.3238s |  1.238% 
                Self:               0.2320s |  0.887% 
        Harmonic Angle:     0.9913s |  3.789% 
        Harmonic Dihedral:  2.6020s |  9.945% 
        Integrate:          1.7828s |  6.814% 
                NPT step 1:  0.3300s |  1.261% 
                        Thermo:  0.0022s |  0.009% 
                        Self:    0.3278s |  1.253% 
                NPT step 2:  0.7811s |  2.985% 
                        Thermo:  0.4647s |  1.776% 
                        Self:    0.3164s |  1.209% 
                Net force:   0.5675s |  2.169% 
                Self:        0.1042s |  0.398% 
        Neighbor:           8.6109s | 32.912% 
                Cell:           0.1513s |  0.578% 
                        compute:  0.0570s |  0.218% 
                        init:     0.0804s |  0.307% 
                MPI allreduce:  0.0971s |  0.371% 
                compute:        4.7912s | 18.313% 
                filter:         3.2058s | 12.253% 
                head-list:      0.2657s |  1.015% 
                update-ex:      0.0230s |  0.088% 
                Self:           0.0767s |  0.293% 
        Pair lj:            2.8915s | 11.052% 
        Pair slj:           3.7424s | 14.304% 
        SFCPack:            0.0068s |  0.026% 
        comm_ghost_exch:    0.7984s |  3.052% 
                MPI send/recv:  0.3276s |  1.252% 2.39401 GiB/s 
                Self:           0.4708s |  1.799% 
        comm_ghost_update:  1.3995s |  5.349% 
                MPI send/recv:  0.7064s |  2.700% 5.35336 GiB/s 
                pack:           0.4124s |  1.576% 
                unpack:         0.1593s |  0.609% 
                Self:           0.1214s |  0.464% 
        comm_migrate:       2.0024s |  7.653% 
                MPI send/recv:  0.2077s |  0.794% 5.07440 MiB/s 
                angle:          0.5319s |  2.033% 
                        MPI send/recv:  0.2884s |  1.102% 2.88968 MiB/s 
                        Self:           0.2435s |  0.931% 
                bond:           0.3684s |  1.408% 
                        MPI send/recv:  0.1390s |  0.531% 3.25640 MiB/s 
                        Self:           0.2294s |  0.877% 
                dihedral:       0.6554s |  2.505% 
                        MPI send/recv:  0.2716s |  1.038% 12.90445 MiB/s 
                        Self:           0.3838s |  1.467% 
                pack:           0.1146s |  0.438% 
                unpack:         0.0197s |  0.075% 
                Self:           0.1047s |  0.400% 
        dist-check:         0.3049s |  1.165% 
        Self:               0.4748s |  1.815% 
---------
-- Neighborlist stats:
1163 normal updates / 34 forced updates / 0 dangerous updates
n_neigh_min: 3 / n_neigh_max: 147 / n_neigh_avg: 105.96649
shortest rebuild period: 5
-- Cell list stats:
Dimension: 20, 20, 4
n_min    : 0 / n_max: 130 / n_avg: 48.27562
** run complete **










################################################################
Running: mpirun -n 8 python polymer_brush.py --mode=gpu --user=8
HOOMD-blue 1.3.3-unknown CUDA (7.5) SINGLE MPI SSE SSE2 SSE3 
Compiled: 03/06/2016
Copyright 2009-2016 The Regents of the University of Michigan.

All publications and presentations based on HOOMD-blue, including any reports
or published results obtained, in whole or in part, with HOOMD-blue, will
acknowledge its use according to the terms posted at the time of submission on:
http://codeblue.umich.edu/hoomd-blue/citations.html
-----
You are using HOOMD-blue. Read and cite the following:
* J A Anderson, C D Lorenz, and A Travesset. "General purpose molecular dynamics
  simulations fully implemented on graphics processing units", Journal of
  Computational Physics 227 (2008) 5342--5359
and
* J Glaser, T D Nguyen, J A Anderson, P Liu, F Spiga, J A Millan, D C Morse, and
  S C Glotzer. "Strong scaling of general-purpose molecular dynamics simulations
  on GPUs", Computer Physics Communications 192 (2015) 97--107
and
* http://codeblue.umich.edu/hoomd-blue
You can save these citations to file using cite.save().
-----
notice(2): This system is not compute exclusive, using local rank to select GPUs
notice(2): Unable to identify node local rank information
notice(2): Using global rank to select GPUs
HOOMD-blue is running on the following GPU(s):
Rank 0:  [0]  Tesla P100-PCIE-16GB  56 SM_6.0 @ 1.33 GHz, 16276 MiB DRAM
Rank 1:  [1]  Tesla P100-PCIE-16GB  56 SM_6.0 @ 1.33 GHz, 16276 MiB DRAM
Rank 2:  [2]  Tesla P100-PCIE-16GB  56 SM_6.0 @ 1.33 GHz, 16276 MiB DRAM
Rank 3:  [3]  Tesla P100-PCIE-16GB  56 SM_6.0 @ 1.33 GHz, 16276 MiB DRAM
Rank 4:  [0]  Tesla P100-PCIE-16GB  56 SM_6.0 @ 1.33 GHz, 16276 MiB DRAM
Rank 5:  [1]  Tesla P100-PCIE-16GB  56 SM_6.0 @ 1.33 GHz, 16276 MiB DRAM
Rank 6:  [2]  Tesla P100-PCIE-16GB  56 SM_6.0 @ 1.33 GHz, 16276 MiB DRAM
Rank 7:  [3]  Tesla P100-PCIE-16GB  56 SM_6.0 @ 1.33 GHz, 16276 MiB DRAM
polymer_brush.py:012  |  system=init.read_xml(filename='init.xml')
notice(2): Reading init.xml...
notice(2): --- hoomd_xml file read summary
notice(2): 1740 positions at timestep 0
notice(2): 1740 velocities
notice(2): 1740 masses
notice(2): 1740 diameters
notice(2): 5 particle types
notice(2): 1740 particle body values
notice(2): 1580 bonds
notice(2): 1420 angles
notice(2): 3780 dihedrals
notice(2): 1740 charges
HOOMD-blue is using domain decomposition: n_x = 1 n_y = 2 n_z = 4.
1 x 2 x 4 local grid on 1 nodes
notice(2): Group "all" created containing 1740 particles
polymer_brush.py:018  |  system.replicate(nx=rep, ny=rep, nz=1)
polymer_brush.py:019  |  typeW1=group.type('W1')
notice(2): Group "type W1" created containing 3840 particles
polymer_brush.py:020  |  typeW2=group.type('W2')
*Warning*: W2 does not exist in the system, creating an empty group
notice(2): Group "type W2" created containing 0 particles
notice(2): Group "Wall" created containing 3840 particles
polymer_brush.py:022  |  typeB= group.type('B')
notice(2): Group "type B" created containing 65280 particles
polymer_brush.py:023  |  typeSolvBackBone = group.type('Solvent')
notice(2): Group "type Solvent" created containing 25600 particles
polymer_brush.py:024  |  typeC= group.type('C')
*Warning*: C does not exist in the system, creating an empty group
notice(2): Group "type C" created containing 0 particles
polymer_brush.py:025  |  typeCH3_W1=group.type('CH3_W1')
notice(2): Group "type CH3_W1" created containing 3840 particles
polymer_brush.py:026  |  typeCH3_W2=group.type('CH3_W2')
*Warning*: CH3_W2 does not exist in the system, creating an empty group
notice(2): Group "type CH3_W2" created containing 0 particles
polymer_brush.py:027  |  typeSolvTail=group.type('SolvTail')
notice(2): Group "type SolvTail" created containing 12800 particles
notice(2): Group "BCH3-particles" created containing 69120 particles
notice(2): Group "CCH3-particles" created containing 0 particles
notice(2): Group "all-solvent" created containing 38400 particles
notice(2): Group "bc-particles" created containing 69120 particles
notice(2): Group "typeAll" created containing 107520 particles
notice(2): Group "typeNPT" created containing 111360 particles
Number of polymeric particles 107520
polymer_brush.py:044  |  lj = pair.lj(r_cut=3.3)
nlist.py:1051  |          globals.neighbor_list = cell();
polymer_brush.py:052  |  lj.pair_coeff.set('Solvent','W1' ,epsilon=0 , sigma=1.3144)
polymer_brush.py:053  |  lj.pair_coeff.set('Solvent','W2' ,epsilon=0 , sigma=1.3144)
polymer_brush.py:054  |  lj.pair_coeff.set('Solvent','Solvent' ,epsilon=1.0*tether_bulk , sigma=1.3144)
polymer_brush.py:055  |  lj.pair_coeff.set('Solvent','B' ,epsilon=tether_bulk , sigma=1.3144)
polymer_brush.py:056  |  lj.pair_coeff.set('Solvent','C' ,epsilon=tether_bulk , sigma=1.3144)
polymer_brush.py:057  |  lj.pair_coeff.set('Solvent','CH3_W1' ,epsilon=bulk_tails , sigma=1.3144)
polymer_brush.py:058  |  lj.pair_coeff.set('Solvent','CH3_W2' ,epsilon=bulk_tails , sigma=1.3144)
polymer_brush.py:059  |  lj.pair_coeff.set('Solvent','SolvTail' ,epsilon=bulk_tails , sigma=1.3144)
polymer_brush.py:060  |  lj.pair_coeff.set('B','B' ,epsilon=tether_bulk , sigma=1.3144)
polymer_brush.py:061  |  lj.pair_coeff.set('C','C' ,epsilon=tether_bulk , sigma=1.3144)
polymer_brush.py:062  |  lj.pair_coeff.set('B','C' ,epsilon=tether_bulk , sigma=1.3144)
polymer_brush.py:063  |  lj.pair_coeff.set('B','CH3_W1' ,epsilon=bulk_tails , sigma=1.3144)
polymer_brush.py:064  |  lj.pair_coeff.set('B','CH3_W2' ,epsilon=bulk_tails , sigma=1.3144)
polymer_brush.py:065  |  lj.pair_coeff.set('C','CH3_W1' ,epsilon=bulk_tails , sigma=1.3144)
polymer_brush.py:066  |  lj.pair_coeff.set('C','CH3_W2' ,epsilon=bulk_tails , sigma=1.3144)
polymer_brush.py:067  |  lj.pair_coeff.set('CH3_W1','CH3_W1' ,epsilon=tails , sigma=1.3144)
polymer_brush.py:068  |  lj.pair_coeff.set('CH3_W1','CH3_W2' ,epsilon=tails , sigma=1.3144)
polymer_brush.py:069  |  lj.pair_coeff.set('CH3_W2' ,'CH3_W2' ,epsilon=tails , sigma=1.3144)
polymer_brush.py:071  |  lj.pair_coeff.set('B','SolvTail' ,epsilon=bulk_tails , sigma=1.3144)
polymer_brush.py:072  |  lj.pair_coeff.set('C','SolvTail' ,epsilon=bulk_tails , sigma=1.3144)
polymer_brush.py:073  |  lj.pair_coeff.set('CH3_W1','SolvTail' ,epsilon=tails , sigma=1.3144)
polymer_brush.py:074  |  lj.pair_coeff.set('CH3_W2','SolvTail' ,epsilon=tails , sigma=1.3144)
polymer_brush.py:075  |  lj.pair_coeff.set('SolvTail' ,'SolvTail' ,epsilon=tails , sigma=1.3144)
polymer_brush.py:077  |  lj.pair_coeff.set('B','C' ,epsilon=0.01 , sigma=2.62 , alpha=0.0)
polymer_brush.py:078  |  lj.pair_coeff.set('W1','W2' ,epsilon=0.0 , sigma=1.0)
polymer_brush.py:079  |  lj.pair_coeff.set('W1','W1' ,epsilon=0.0 , sigma=1.0)
polymer_brush.py:080  |  lj.pair_coeff.set('W1','B' ,epsilon=0.0 , sigma = 1.0)
polymer_brush.py:081  |  lj.pair_coeff.set('W1','C' ,epsilon=0.0 , sigma = 1.0)
polymer_brush.py:082  |  lj.pair_coeff.set('W2','W2' ,epsilon=0.0 , sigma=1.0)
polymer_brush.py:083  |  lj.pair_coeff.set('W2','B' ,epsilon=0.0 , sigma = 1.0)
polymer_brush.py:084  |  lj.pair_coeff.set('W2','C' ,epsilon=0.0 , sigma = 1.0)
polymer_brush.py:085  |  lj.pair_coeff.set('W1','CH3_W1' ,epsilon=0.0 , sigma = 1.0)
polymer_brush.py:086  |  lj.pair_coeff.set('W1','CH3_W2' ,epsilon=0.0 , sigma = 1.0)
polymer_brush.py:087  |  lj.pair_coeff.set('W1','SolvTail' ,epsilon=0.0 , sigma = 1.0)
polymer_brush.py:088  |  lj.pair_coeff.set('W2','CH3_W1' ,epsilon=0.0 , sigma = 1.0)
polymer_brush.py:089  |  lj.pair_coeff.set('W2','CH3_W2' ,epsilon=0.0 , sigma = 1.0)
polymer_brush.py:090  |  lj.pair_coeff.set('W2','SolvTail' ,epsilon=0.0 , sigma = 1.0)
polymer_brush.py:091  |  lj.pair_coeff.set('A','C' ,epsilon=0.0 , sigma=1.0 , alpha=0.0)
polymer_brush.py:093  |  slj = pair.slj(r_cut= 1.3)
notice(2): Notice: slj set d_max=2.0
polymer_brush.py:094  |  slj.set_params(mode="shift")
pair.py:886  |          pair.set_params(self, mode=mode);
polymer_brush.py:095  |  slj.pair_coeff.set('W2','Solvent', epsilon = 1.0 , sigma =1.25 ,r_cut =1.25* 2**(1.0/6.0))
polymer_brush.py:096  |  slj.pair_coeff.set('W1','Solvent', epsilon = 1.0 , sigma =1.25 ,r_cut =1.25* 2**(1.0/6.0))
polymer_brush.py:097  |  slj.pair_coeff.set('Solvent','Solvent', epsilon = 0, sigma = 1.0)
polymer_brush.py:098  |  slj.pair_coeff.set('Solvent','B', epsilon = 0, sigma = 1.0)
polymer_brush.py:099  |  slj.pair_coeff.set('Solvent','C', epsilon = 0, sigma = 1.0)
polymer_brush.py:100  |  slj.pair_coeff.set('Solvent','CH3_W1', epsilon = 0, sigma = 1.0)
polymer_brush.py:101  |  slj.pair_coeff.set('Solvent','CH3_W2', epsilon = 0, sigma = 1.0)
polymer_brush.py:102  |  slj.pair_coeff.set('Solvent','SolvTail', epsilon = 0, sigma = 1.0)
polymer_brush.py:103  |  slj.pair_coeff.set('W1','W2', epsilon = 0 , sigma =1.0)
polymer_brush.py:104  |  slj.pair_coeff.set('W1','W1', epsilon = 0 , sigma =1.0)
polymer_brush.py:105  |  slj.pair_coeff.set('W2','W2', epsilon = 0 , sigma =1.0)
polymer_brush.py:106  |  slj.pair_coeff.set('W1','B', epsilon = 1.0 , sigma =1.25 ,r_cut =1.25* 2**(1.0/6.0))
polymer_brush.py:107  |  slj.pair_coeff.set('W1','C', epsilon = 1.0 , sigma =1.25 ,r_cut =1.25* 2**(1.0/6.0))
polymer_brush.py:108  |  slj.pair_coeff.set('W2','B', epsilon = 1.0 , sigma =1.25 ,r_cut =1.25* 2**(1.0/6.0))
polymer_brush.py:109  |  slj.pair_coeff.set('W2','C', epsilon = 1.0 , sigma =1.25 ,r_cut =1.25* 2**(1.0/6.0))
polymer_brush.py:110  |  slj.pair_coeff.set('W1','CH3_W1', epsilon = 1.0 , sigma =1.25 ,r_cut =1.25* 2**(1.0/6.0))
polymer_brush.py:111  |  slj.pair_coeff.set('W1','CH3_W2', epsilon = 1.0 , sigma =1.25 ,r_cut =1.25* 2**(1.0/6.0))
polymer_brush.py:112  |  slj.pair_coeff.set('W2','CH3_W1', epsilon = 1.0 , sigma =1.25 ,r_cut =1.25* 2**(1.0/6.0))
polymer_brush.py:113  |  slj.pair_coeff.set('W2','CH3_W2', epsilon = 1.0 , sigma =1.25 ,r_cut =1.25* 2**(1.0/6.0))
polymer_brush.py:114  |  slj.pair_coeff.set('W1','SolvTail', epsilon = 1.0 , sigma =1.25 ,r_cut =1.25* 2**(1.0/6.0))
polymer_brush.py:115  |  slj.pair_coeff.set('W2','SolvTail', epsilon = 1.0 , sigma =1.25 ,r_cut =1.25* 2**(1.0/6.0))
polymer_brush.py:116  |  slj.pair_coeff.set('B','B', epsilon = 0, sigma = 1.0)
polymer_brush.py:117  |  slj.pair_coeff.set('C','C', epsilon = 0, sigma = 1.0)
polymer_brush.py:118  |  slj.pair_coeff.set('B','C', epsilon = 0, sigma = 1.0)
polymer_brush.py:119  |  slj.pair_coeff.set('B','CH3_W1', epsilon = 0, sigma = 1.0)
polymer_brush.py:120  |  slj.pair_coeff.set('B','CH3_W2', epsilon = 0, sigma = 1.0)
polymer_brush.py:121  |  slj.pair_coeff.set('B','SolvTail', epsilon = 0, sigma = 1.0)
polymer_brush.py:122  |  slj.pair_coeff.set('C','CH3_W1', epsilon = 0, sigma = 1.0)
polymer_brush.py:123  |  slj.pair_coeff.set('C','CH3_W2', epsilon = 0, sigma = 1.0)
polymer_brush.py:124  |  slj.pair_coeff.set('C','SolvTail', epsilon = 0, sigma = 1.0)
polymer_brush.py:125  |  slj.pair_coeff.set('CH3_W1','CH3_W1', epsilon = 0, sigma = 1.0)
polymer_brush.py:126  |  slj.pair_coeff.set('CH3_W1','CH3_W2', epsilon = 0, sigma = 1.0)
polymer_brush.py:127  |  slj.pair_coeff.set('CH3_W2','CH3_W2', epsilon = 0, sigma = 1.0)
polymer_brush.py:128  |  slj.pair_coeff.set('CH3_W1','SolvTail', epsilon = 0, sigma = 1.0)
polymer_brush.py:129  |  slj.pair_coeff.set('CH3_W2','SolvTail', epsilon = 0, sigma = 1.0)
polymer_brush.py:130  |  slj.pair_coeff.set('SolvTail','SolvTail', epsilon = 0, sigma = 1.0)
polymer_brush.py:133  |  harmonicO_O= bond.harmonic(name = 'O-O-bond')
polymer_brush.py:135  |  harmonicO_O.bond_coeff.set('oleic', k=9892.9362 , r0=0.5)
polymer_brush.py:138  |  harmonicO_O.bond_coeff.set('wall', k=9892.9362, r0=1.25)
polymer_brush.py:141  |  angleWO = angle.harmonic()
polymer_brush.py:142  |  angleWO.set_coeff('W-O' , k = 201.2878 , t0= 2.5307)
polymer_brush.py:143  |  angleWO.set_coeff('O-O' , k = 201.2878 , t0= 1.92)
polymer_brush.py:144  |  angleWO.set_coeff('kink' , k = 1000.2878 , t0= 2.8)
polymer_brush.py:150  |  dihedralField = dihedral.harmonic()
polymer_brush.py:151  |  dihedralField.set_coeff('DihedralW1' , k = 2.6838 , d=1 , n= 1)
polymer_brush.py:152  |  dihedralField.set_coeff('DihedralW2' , k = 1.4543 , d=-1 , n= 2)
polymer_brush.py:153  |  dihedralField.set_coeff('DihedralW3' , k =5.4347 , d=1 , n= 3)
polymer_brush.py:154  |  dihedralField.set_coeff('Dihedral1' , k =2.6838 , d=1 , n= 1)
polymer_brush.py:155  |  dihedralField.set_coeff('Dihedral2' , k = 1.4543 , d=-1 , n= 2)
polymer_brush.py:156  |  dihedralField.set_coeff('Dihedral3' , k =5.4347 , d=1 , n= 3)
polymer_brush.py:158  |  integrate.mode_standard(dt= 0.005)
polymer_brush.py:160  |  integrator=integrate.nve(group=typeAll , limit=0.01 )
polymer_brush.py:161  |  zeroer = update.zero_momentum(period = 1)
polymer_brush.py:164  |  run(200)
notice(2): -- Neighborlist exclusion statistics -- :
notice(2): Particles with 1 exclusions             : 20480
notice(2): Particles with 2 exclusions             : 90880
notice(2): Neighbors included by diameter          : yes
notice(2): Neighbors excluded when in the same body: no
** starting run **
Time 00:00:06 | Step 200 / 200 | TPS 99.7307 | ETA 00:00:00
Average TPS: 99.7286
---------
-- Neighborlist stats:
9 normal updates / 1 forced updates / 0 dangerous updates
n_neigh_min: 60 / n_neigh_max: 140 / n_neigh_avg: 110.108
shortest rebuild period: 21
-- Cell list stats:
Dimension: 20, 11, 3
n_min    : 8 / n_max: 189 / n_avg: 74.4727
** run complete **
polymer_brush.py:165  |  zeroer.disable()
polymer_brush.py:167  |  integrator.disable()
polymer_brush.py:169  |  integrator=integrate.npt(group=typeAll , tau=1.0 , T= 1.0 , tauP = 1.2 , P = 0.00078 , x=False , y = False , z = True , rescale_all=True )
polymer_brush.py:172  |  run(1e4, profile=True, limit_hours=1)
** starting run **
Time 00:00:16 | Step 2439 / 10200 | TPS 223.875 | ETA 00:00:34
Time 00:00:26 | Step 5070 / 10200 | TPS 262.826 | ETA 00:00:19
Time 00:00:36 | Step 7738 / 10200 | TPS 266.76 | ETA 00:00:09
Time 00:00:46 | Step 10200 / 10200 | TPS 265.36 | ETA 00:00:00
Average TPS: 254.511
Simulation: 39.2910s | 100.000% 
        Bond harmonic:      1.1606s |  2.954% 
                update bond table:  0.5947s |  1.514% 
                Self:               0.5659s |  1.440% 
        Harmonic Angle:     1.9518s |  4.968% 
        Harmonic Dihedral:  2.5933s |  6.600% 
        Integrate:          6.2563s | 15.923% 
                NPT step 1:  0.3552s |  0.904% 
                        Thermo:  0.0040s |  0.010% 
                        Self:    0.3513s |  0.894% 
                NPT step 2:  4.0569s | 10.325% 
                        Thermo:  1.4266s |  3.631% 
                        Self:    2.6303s |  6.694% 
                Net force:   1.6223s |  4.129% 
                Self:        0.2219s |  0.565% 
        Neighbor:           6.4975s | 16.537% 
                Cell:           0.5549s |  1.412% 
                        compute:  0.3275s |  0.834% 
                        init:     0.1870s |  0.476% 
                        Self:     0.0404s |  0.103% 
                MPI allreduce:  0.7135s |  1.816% 
                compute:        3.2894s |  8.372% 
                filter:         0.8873s |  2.258% 
                head-list:      0.5906s |  1.503% 
                update-ex:      0.3156s |  0.803% 
                Self:           0.1462s |  0.372% 
        Pair lj:            3.0646s |  7.800% 
        Pair slj:           3.3285s |  8.471% 
        SFCPack:            0.0093s |  0.024% 
        comm_ghost_exch:    1.6781s |  4.271% 
                MPI send/recv:  0.5406s |  1.376% 1.47249 GiB/s 
                Self:           1.1375s |  2.895% 
        comm_ghost_update:  3.8190s |  9.720% 
                MPI send/recv:  1.2036s |  3.063% 4.09219 GiB/s 
                pack:           1.5677s |  3.990% 
                unpack:         0.8965s |  2.282% 
                Self:           0.1512s |  0.385% 
        comm_migrate:       5.6192s | 14.302% 
                MPI send/recv:  0.2974s |  0.757% 30.50801 MiB/s 
                angle:          1.4996s |  3.817% 
                        MPI send/recv:  0.4416s |  1.124% 22.15665 MiB/s 
                        Self:           1.0580s |  2.693% 
                bond:           1.2865s |  3.274% 
                        MPI send/recv:  0.2287s |  0.582% 19.34923 MiB/s 
                        Self:           1.0578s |  2.692% 
                dihedral:       1.6814s |  4.279% 
                        MPI send/recv:  0.4171s |  1.062% 124.15214 MiB/s 
                        Self:           1.2644s |  3.218% 
                pack:           0.3280s |  0.835% 
                unpack:         0.1537s |  0.391% 
                Self:           0.3725s |  0.948% 
        dist-check:         2.3527s |  5.988% 
        Self:               0.9601s |  2.444% 
---------
-- Neighborlist stats:
1160 normal updates / 34 forced updates / 0 dangerous updates
n_neigh_min: 3 / n_neigh_max: 145 / n_neigh_avg: 105.95040
shortest rebuild period: 6
-- Cell list stats:
Dimension: 20, 11, 4
n_min    : 0 / n_max: 154 / n_avg: 52.70909
** run complete **










################################################################
Running: mpirun -n 16 python polymer_brush.py --mode=gpu --user=8
HOOMD-blue 1.3.3-unknown CUDA (7.5) SINGLE MPI SSE SSE2 SSE3 
Compiled: 03/06/2016
Copyright 2009-2016 The Regents of the University of Michigan.

All publications and presentations based on HOOMD-blue, including any reports
or published results obtained, in whole or in part, with HOOMD-blue, will
acknowledge its use according to the terms posted at the time of submission on:
http://codeblue.umich.edu/hoomd-blue/citations.html
-----
You are using HOOMD-blue. Read and cite the following:
* J A Anderson, C D Lorenz, and A Travesset. "General purpose molecular dynamics
  simulations fully implemented on graphics processing units", Journal of
  Computational Physics 227 (2008) 5342--5359
and
* J Glaser, T D Nguyen, J A Anderson, P Liu, F Spiga, J A Millan, D C Morse, and
  S C Glotzer. "Strong scaling of general-purpose molecular dynamics simulations
  on GPUs", Computer Physics Communications 192 (2015) 97--107
and
* http://codeblue.umich.edu/hoomd-blue
You can save these citations to file using cite.save().
-----
notice(2): This system is not compute exclusive, using local rank to select GPUs
notice(2): Unable to identify node local rank information
notice(2): Using global rank to select GPUs
HOOMD-blue is running on the following GPU(s):
Rank 0:  [0]  Tesla P100-PCIE-16GB  56 SM_6.0 @ 1.33 GHz, 16276 MiB DRAM
Rank 1:  [1]  Tesla P100-PCIE-16GB  56 SM_6.0 @ 1.33 GHz, 16276 MiB DRAM
Rank 2:  [2]  Tesla P100-PCIE-16GB  56 SM_6.0 @ 1.33 GHz, 16276 MiB DRAM
Rank 3:  [3]  Tesla P100-PCIE-16GB  56 SM_6.0 @ 1.33 GHz, 16276 MiB DRAM
Rank 4:  [0]  Tesla P100-PCIE-16GB  56 SM_6.0 @ 1.33 GHz, 16276 MiB DRAM
Rank 5:  [1]  Tesla P100-PCIE-16GB  56 SM_6.0 @ 1.33 GHz, 16276 MiB DRAM
Rank 6:  [2]  Tesla P100-PCIE-16GB  56 SM_6.0 @ 1.33 GHz, 16276 MiB DRAM
Rank 7:  [3]  Tesla P100-PCIE-16GB  56 SM_6.0 @ 1.33 GHz, 16276 MiB DRAM
Rank 8:  [0]  Tesla P100-PCIE-16GB  56 SM_6.0 @ 1.33 GHz, 16276 MiB DRAM
Rank 9:  [1]  Tesla P100-PCIE-16GB  56 SM_6.0 @ 1.33 GHz, 16276 MiB DRAM
Rank 10:  [2]  Tesla P100-PCIE-16GB  56 SM_6.0 @ 1.33 GHz, 16276 MiB DRAM
Rank 11:  [3]  Tesla P100-PCIE-16GB  56 SM_6.0 @ 1.33 GHz, 16276 MiB DRAM
Rank 12:  [0]  Tesla P100-PCIE-16GB  56 SM_6.0 @ 1.33 GHz, 16276 MiB DRAM
Rank 13:  [1]  Tesla P100-PCIE-16GB  56 SM_6.0 @ 1.33 GHz, 16276 MiB DRAM
Rank 14:  [2]  Tesla P100-PCIE-16GB  56 SM_6.0 @ 1.33 GHz, 16276 MiB DRAM
Rank 15:  [3]  Tesla P100-PCIE-16GB  56 SM_6.0 @ 1.33 GHz, 16276 MiB DRAM
polymer_brush.py:012  |  system=init.read_xml(filename='init.xml')
notice(2): Reading init.xml...
notice(2): --- hoomd_xml file read summary
notice(2): 1740 positions at timestep 0
notice(2): 1740 velocities
notice(2): 1740 masses
notice(2): 1740 diameters
notice(2): 5 particle types
notice(2): 1740 particle body values
notice(2): 1580 bonds
notice(2): 1420 angles
notice(2): 3780 dihedrals
notice(2): 1740 charges
HOOMD-blue is using domain decomposition: n_x = 2 n_y = 2 n_z = 4.
2 x 2 x 4 local grid on 1 nodes
notice(2): Group "all" created containing 1740 particles
polymer_brush.py:018  |  system.replicate(nx=rep, ny=rep, nz=1)
polymer_brush.py:019  |  typeW1=group.type('W1')
notice(2): Group "type W1" created containing 3840 particles
polymer_brush.py:020  |  typeW2=group.type('W2')
*Warning*: W2 does not exist in the system, creating an empty group
notice(2): Group "type W2" created containing 0 particles
notice(2): Group "Wall" created containing 3840 particles
polymer_brush.py:022  |  typeB= group.type('B')
notice(2): Group "type B" created containing 65280 particles
polymer_brush.py:023  |  typeSolvBackBone = group.type('Solvent')
notice(2): Group "type Solvent" created containing 25600 particles
polymer_brush.py:024  |  typeC= group.type('C')
*Warning*: C does not exist in the system, creating an empty group
notice(2): Group "type C" created containing 0 particles
polymer_brush.py:025  |  typeCH3_W1=group.type('CH3_W1')
notice(2): Group "type CH3_W1" created containing 3840 particles
polymer_brush.py:026  |  typeCH3_W2=group.type('CH3_W2')
*Warning*: CH3_W2 does not exist in the system, creating an empty group
notice(2): Group "type CH3_W2" created containing 0 particles
polymer_brush.py:027  |  typeSolvTail=group.type('SolvTail')
notice(2): Group "type SolvTail" created containing 12800 particles
notice(2): Group "BCH3-particles" created containing 69120 particles
notice(2): Group "CCH3-particles" created containing 0 particles
notice(2): Group "all-solvent" created containing 38400 particles
notice(2): Group "bc-particles" created containing 69120 particles
notice(2): Group "typeAll" created containing 107520 particles
notice(2): Group "typeNPT" created containing 111360 particles
Number of polymeric particles 107520
polymer_brush.py:044  |  lj = pair.lj(r_cut=3.3)
nlist.py:1051  |          globals.neighbor_list = cell();
polymer_brush.py:052  |  lj.pair_coeff.set('Solvent','W1' ,epsilon=0 , sigma=1.3144)
polymer_brush.py:053  |  lj.pair_coeff.set('Solvent','W2' ,epsilon=0 , sigma=1.3144)
polymer_brush.py:054  |  lj.pair_coeff.set('Solvent','Solvent' ,epsilon=1.0*tether_bulk , sigma=1.3144)
polymer_brush.py:055  |  lj.pair_coeff.set('Solvent','B' ,epsilon=tether_bulk , sigma=1.3144)
polymer_brush.py:056  |  lj.pair_coeff.set('Solvent','C' ,epsilon=tether_bulk , sigma=1.3144)
polymer_brush.py:057  |  lj.pair_coeff.set('Solvent','CH3_W1' ,epsilon=bulk_tails , sigma=1.3144)
polymer_brush.py:058  |  lj.pair_coeff.set('Solvent','CH3_W2' ,epsilon=bulk_tails , sigma=1.3144)
polymer_brush.py:059  |  lj.pair_coeff.set('Solvent','SolvTail' ,epsilon=bulk_tails , sigma=1.3144)
polymer_brush.py:060  |  lj.pair_coeff.set('B','B' ,epsilon=tether_bulk , sigma=1.3144)
polymer_brush.py:061  |  lj.pair_coeff.set('C','C' ,epsilon=tether_bulk , sigma=1.3144)
polymer_brush.py:062  |  lj.pair_coeff.set('B','C' ,epsilon=tether_bulk , sigma=1.3144)
polymer_brush.py:063  |  lj.pair_coeff.set('B','CH3_W1' ,epsilon=bulk_tails , sigma=1.3144)
polymer_brush.py:064  |  lj.pair_coeff.set('B','CH3_W2' ,epsilon=bulk_tails , sigma=1.3144)
polymer_brush.py:065  |  lj.pair_coeff.set('C','CH3_W1' ,epsilon=bulk_tails , sigma=1.3144)
polymer_brush.py:066  |  lj.pair_coeff.set('C','CH3_W2' ,epsilon=bulk_tails , sigma=1.3144)
polymer_brush.py:067  |  lj.pair_coeff.set('CH3_W1','CH3_W1' ,epsilon=tails , sigma=1.3144)
polymer_brush.py:068  |  lj.pair_coeff.set('CH3_W1','CH3_W2' ,epsilon=tails , sigma=1.3144)
polymer_brush.py:069  |  lj.pair_coeff.set('CH3_W2' ,'CH3_W2' ,epsilon=tails , sigma=1.3144)
polymer_brush.py:071  |  lj.pair_coeff.set('B','SolvTail' ,epsilon=bulk_tails , sigma=1.3144)
polymer_brush.py:072  |  lj.pair_coeff.set('C','SolvTail' ,epsilon=bulk_tails , sigma=1.3144)
polymer_brush.py:073  |  lj.pair_coeff.set('CH3_W1','SolvTail' ,epsilon=tails , sigma=1.3144)
polymer_brush.py:074  |  lj.pair_coeff.set('CH3_W2','SolvTail' ,epsilon=tails , sigma=1.3144)
polymer_brush.py:075  |  lj.pair_coeff.set('SolvTail' ,'SolvTail' ,epsilon=tails , sigma=1.3144)
polymer_brush.py:077  |  lj.pair_coeff.set('B','C' ,epsilon=0.01 , sigma=2.62 , alpha=0.0)
polymer_brush.py:078  |  lj.pair_coeff.set('W1','W2' ,epsilon=0.0 , sigma=1.0)
polymer_brush.py:079  |  lj.pair_coeff.set('W1','W1' ,epsilon=0.0 , sigma=1.0)
polymer_brush.py:080  |  lj.pair_coeff.set('W1','B' ,epsilon=0.0 , sigma = 1.0)
polymer_brush.py:081  |  lj.pair_coeff.set('W1','C' ,epsilon=0.0 , sigma = 1.0)
polymer_brush.py:082  |  lj.pair_coeff.set('W2','W2' ,epsilon=0.0 , sigma=1.0)
polymer_brush.py:083  |  lj.pair_coeff.set('W2','B' ,epsilon=0.0 , sigma = 1.0)
polymer_brush.py:084  |  lj.pair_coeff.set('W2','C' ,epsilon=0.0 , sigma = 1.0)
polymer_brush.py:085  |  lj.pair_coeff.set('W1','CH3_W1' ,epsilon=0.0 , sigma = 1.0)
polymer_brush.py:086  |  lj.pair_coeff.set('W1','CH3_W2' ,epsilon=0.0 , sigma = 1.0)
polymer_brush.py:087  |  lj.pair_coeff.set('W1','SolvTail' ,epsilon=0.0 , sigma = 1.0)
polymer_brush.py:088  |  lj.pair_coeff.set('W2','CH3_W1' ,epsilon=0.0 , sigma = 1.0)
polymer_brush.py:089  |  lj.pair_coeff.set('W2','CH3_W2' ,epsilon=0.0 , sigma = 1.0)
polymer_brush.py:090  |  lj.pair_coeff.set('W2','SolvTail' ,epsilon=0.0 , sigma = 1.0)
polymer_brush.py:091  |  lj.pair_coeff.set('A','C' ,epsilon=0.0 , sigma=1.0 , alpha=0.0)
polymer_brush.py:093  |  slj = pair.slj(r_cut= 1.3)
notice(2): Notice: slj set d_max=2.0
polymer_brush.py:094  |  slj.set_params(mode="shift")
pair.py:886  |          pair.set_params(self, mode=mode);
polymer_brush.py:095  |  slj.pair_coeff.set('W2','Solvent', epsilon = 1.0 , sigma =1.25 ,r_cut =1.25* 2**(1.0/6.0))
polymer_brush.py:096  |  slj.pair_coeff.set('W1','Solvent', epsilon = 1.0 , sigma =1.25 ,r_cut =1.25* 2**(1.0/6.0))
polymer_brush.py:097  |  slj.pair_coeff.set('Solvent','Solvent', epsilon = 0, sigma = 1.0)
polymer_brush.py:098  |  slj.pair_coeff.set('Solvent','B', epsilon = 0, sigma = 1.0)
polymer_brush.py:099  |  slj.pair_coeff.set('Solvent','C', epsilon = 0, sigma = 1.0)
polymer_brush.py:100  |  slj.pair_coeff.set('Solvent','CH3_W1', epsilon = 0, sigma = 1.0)
polymer_brush.py:101  |  slj.pair_coeff.set('Solvent','CH3_W2', epsilon = 0, sigma = 1.0)
polymer_brush.py:102  |  slj.pair_coeff.set('Solvent','SolvTail', epsilon = 0, sigma = 1.0)
polymer_brush.py:103  |  slj.pair_coeff.set('W1','W2', epsilon = 0 , sigma =1.0)
polymer_brush.py:104  |  slj.pair_coeff.set('W1','W1', epsilon = 0 , sigma =1.0)
polymer_brush.py:105  |  slj.pair_coeff.set('W2','W2', epsilon = 0 , sigma =1.0)
polymer_brush.py:106  |  slj.pair_coeff.set('W1','B', epsilon = 1.0 , sigma =1.25 ,r_cut =1.25* 2**(1.0/6.0))
polymer_brush.py:107  |  slj.pair_coeff.set('W1','C', epsilon = 1.0 , sigma =1.25 ,r_cut =1.25* 2**(1.0/6.0))
polymer_brush.py:108  |  slj.pair_coeff.set('W2','B', epsilon = 1.0 , sigma =1.25 ,r_cut =1.25* 2**(1.0/6.0))
polymer_brush.py:109  |  slj.pair_coeff.set('W2','C', epsilon = 1.0 , sigma =1.25 ,r_cut =1.25* 2**(1.0/6.0))
polymer_brush.py:110  |  slj.pair_coeff.set('W1','CH3_W1', epsilon = 1.0 , sigma =1.25 ,r_cut =1.25* 2**(1.0/6.0))
polymer_brush.py:111  |  slj.pair_coeff.set('W1','CH3_W2', epsilon = 1.0 , sigma =1.25 ,r_cut =1.25* 2**(1.0/6.0))
polymer_brush.py:112  |  slj.pair_coeff.set('W2','CH3_W1', epsilon = 1.0 , sigma =1.25 ,r_cut =1.25* 2**(1.0/6.0))
polymer_brush.py:113  |  slj.pair_coeff.set('W2','CH3_W2', epsilon = 1.0 , sigma =1.25 ,r_cut =1.25* 2**(1.0/6.0))
polymer_brush.py:114  |  slj.pair_coeff.set('W1','SolvTail', epsilon = 1.0 , sigma =1.25 ,r_cut =1.25* 2**(1.0/6.0))
polymer_brush.py:115  |  slj.pair_coeff.set('W2','SolvTail', epsilon = 1.0 , sigma =1.25 ,r_cut =1.25* 2**(1.0/6.0))
polymer_brush.py:116  |  slj.pair_coeff.set('B','B', epsilon = 0, sigma = 1.0)
polymer_brush.py:117  |  slj.pair_coeff.set('C','C', epsilon = 0, sigma = 1.0)
polymer_brush.py:118  |  slj.pair_coeff.set('B','C', epsilon = 0, sigma = 1.0)
polymer_brush.py:119  |  slj.pair_coeff.set('B','CH3_W1', epsilon = 0, sigma = 1.0)
polymer_brush.py:120  |  slj.pair_coeff.set('B','CH3_W2', epsilon = 0, sigma = 1.0)
polymer_brush.py:121  |  slj.pair_coeff.set('B','SolvTail', epsilon = 0, sigma = 1.0)
polymer_brush.py:122  |  slj.pair_coeff.set('C','CH3_W1', epsilon = 0, sigma = 1.0)
polymer_brush.py:123  |  slj.pair_coeff.set('C','CH3_W2', epsilon = 0, sigma = 1.0)
polymer_brush.py:124  |  slj.pair_coeff.set('C','SolvTail', epsilon = 0, sigma = 1.0)
polymer_brush.py:125  |  slj.pair_coeff.set('CH3_W1','CH3_W1', epsilon = 0, sigma = 1.0)
polymer_brush.py:126  |  slj.pair_coeff.set('CH3_W1','CH3_W2', epsilon = 0, sigma = 1.0)
polymer_brush.py:127  |  slj.pair_coeff.set('CH3_W2','CH3_W2', epsilon = 0, sigma = 1.0)
polymer_brush.py:128  |  slj.pair_coeff.set('CH3_W1','SolvTail', epsilon = 0, sigma = 1.0)
polymer_brush.py:129  |  slj.pair_coeff.set('CH3_W2','SolvTail', epsilon = 0, sigma = 1.0)
polymer_brush.py:130  |  slj.pair_coeff.set('SolvTail','SolvTail', epsilon = 0, sigma = 1.0)
polymer_brush.py:133  |  harmonicO_O= bond.harmonic(name = 'O-O-bond')
polymer_brush.py:135  |  harmonicO_O.bond_coeff.set('oleic', k=9892.9362 , r0=0.5)
polymer_brush.py:138  |  harmonicO_O.bond_coeff.set('wall', k=9892.9362, r0=1.25)
polymer_brush.py:141  |  angleWO = angle.harmonic()
polymer_brush.py:142  |  angleWO.set_coeff('W-O' , k = 201.2878 , t0= 2.5307)
polymer_brush.py:143  |  angleWO.set_coeff('O-O' , k = 201.2878 , t0= 1.92)
polymer_brush.py:144  |  angleWO.set_coeff('kink' , k = 1000.2878 , t0= 2.8)
polymer_brush.py:150  |  dihedralField = dihedral.harmonic()
polymer_brush.py:151  |  dihedralField.set_coeff('DihedralW1' , k = 2.6838 , d=1 , n= 1)
polymer_brush.py:152  |  dihedralField.set_coeff('DihedralW2' , k = 1.4543 , d=-1 , n= 2)
polymer_brush.py:153  |  dihedralField.set_coeff('DihedralW3' , k =5.4347 , d=1 , n= 3)
polymer_brush.py:154  |  dihedralField.set_coeff('Dihedral1' , k =2.6838 , d=1 , n= 1)
polymer_brush.py:155  |  dihedralField.set_coeff('Dihedral2' , k = 1.4543 , d=-1 , n= 2)
polymer_brush.py:156  |  dihedralField.set_coeff('Dihedral3' , k =5.4347 , d=1 , n= 3)
polymer_brush.py:158  |  integrate.mode_standard(dt= 0.005)
polymer_brush.py:160  |  integrator=integrate.nve(group=typeAll , limit=0.01 )
polymer_brush.py:161  |  zeroer = update.zero_momentum(period = 1)
polymer_brush.py:164  |  run(200)
*Warning*: compute.thermo: given a group with 0 degrees of freedom.
            overriding ndof=1 to avoid divide by 0 errors
notice(2): -- Neighborlist exclusion statistics -- :
notice(2): Particles with 1 exclusions             : 20480
notice(2): Particles with 2 exclusions             : 90880
notice(2): Neighbors included by diameter          : yes
notice(2): Neighbors excluded when in the same body: no
** starting run **
Time 00:00:14 | Step 200 / 200 | TPS 52.7288 | ETA 00:00:00
Average TPS: 52.7281
---------
-- Neighborlist stats:
9 normal updates / 1 forced updates / 0 dangerous updates
n_neigh_min: 60 / n_neigh_max: 140 / n_neigh_avg: 110.11
shortest rebuild period: 21
-- Cell list stats:
Dimension: 11, 11, 3
n_min    : 8 / n_max: 205 / n_avg: 80.4738
** run complete **
polymer_brush.py:165  |  zeroer.disable()
polymer_brush.py:167  |  integrator.disable()
polymer_brush.py:169  |  integrator=integrate.npt(group=typeAll , tau=1.0 , T= 1.0 , tauP = 1.2 , P = 0.00078 , x=False , y = False , z = True , rescale_all=True )
polymer_brush.py:172  |  run(1e4, profile=True, limit_hours=1)
** starting run **
Time 00:00:24 | Step 1606 / 10200 | TPS 140.548 | ETA 00:01:01
Time 00:00:34 | Step 3177 / 10200 | TPS 157.042 | ETA 00:00:44
[...]
                MPI send/recv:  6.8533s |  2.688% 5.72362 GiB/s 
                pack:           0.7356s |  0.289% 
                unpack:         2.0589s |  0.808% 
                Self:           7.3438s |  2.881% 
        comm_migrate:      11.0337s |  4.328% 
                MPI send/recv:  0.6152s |  0.241% 66.41666 MiB/s 
                angle:          2.5322s |  0.993% 
                        MPI send/recv:  0.8470s |  0.332% 49.60205 MiB/s 
                        Self:           1.6852s |  0.661% 
                bond:           2.0540s |  0.806% 
                        MPI send/recv:  0.4944s |  0.194% 38.81221 MiB/s 
                        Self:           1.5596s |  0.612% 
                dihedral:       4.1768s |  1.638% 
                        MPI send/recv:  0.7974s |  0.313% 275.09373 MiB/s 
                        Self:           3.3794s |  1.326% 
                pack:           0.8457s |  0.332% 
                unpack:         0.2106s |  0.083% 
                Self:           0.5993s |  0.235% 
        dist-check:         3.8393s |  1.506% 
        Self:               2.9167s |  1.144% 
---------
-- Neighborlist stats:
1315 normal updates / 34 forced updates / 0 dangerous updates
n_neigh_min: 3 / n_neigh_max: 148 / n_neigh_avg: 105.95312
shortest rebuild period: 5
-- Cell list stats:
Dimension: 81, 41, 4
n_min    : 0 / n_max: 143 / n_avg: 48.70619
** run complete **










################################################################
Running: mpirun -n 16 python polymer_brush.py --mode=gpu --user=32
HOOMD-blue 1.3.3-unknown CUDA (7.5) SINGLE MPI SSE SSE2 SSE3 
Compiled: 03/06/2016
Copyright 2009-2016 The Regents of the University of Michigan.

All publications and presentations based on HOOMD-blue, including any reports
or published results obtained, in whole or in part, with HOOMD-blue, will
acknowledge its use according to the terms posted at the time of submission on:
http://codeblue.umich.edu/hoomd-blue/citations.html
-----
You are using HOOMD-blue. Read and cite the following:
* J A Anderson, C D Lorenz, and A Travesset. "General purpose molecular dynamics
  simulations fully implemented on graphics processing units", Journal of
  Computational Physics 227 (2008) 5342--5359
and
* J Glaser, T D Nguyen, J A Anderson, P Liu, F Spiga, J A Millan, D C Morse, and
  S C Glotzer. "Strong scaling of general-purpose molecular dynamics simulations
  on GPUs", Computer Physics Communications 192 (2015) 97--107
and
* http://codeblue.umich.edu/hoomd-blue
You can save these citations to file using cite.save().
-----
notice(2): This system is not compute exclusive, using local rank to select GPUs
notice(2): Unable to identify node local rank information
notice(2): Using global rank to select GPUs
HOOMD-blue is running on the following GPU(s):
Rank 0:  [0]  Tesla P100-PCIE-16GB  56 SM_6.0 @ 1.33 GHz, 16276 MiB DRAM
Rank 1:  [1]  Tesla P100-PCIE-16GB  56 SM_6.0 @ 1.33 GHz, 16276 MiB DRAM
Rank 2:  [2]  Tesla P100-PCIE-16GB  56 SM_6.0 @ 1.33 GHz, 16276 MiB DRAM
Rank 3:  [3]  Tesla P100-PCIE-16GB  56 SM_6.0 @ 1.33 GHz, 16276 MiB DRAM
Rank 4:  [0]  Tesla P100-PCIE-16GB  56 SM_6.0 @ 1.33 GHz, 16276 MiB DRAM
Rank 5:  [1]  Tesla P100-PCIE-16GB  56 SM_6.0 @ 1.33 GHz, 16276 MiB DRAM
Rank 6:  [2]  Tesla P100-PCIE-16GB  56 SM_6.0 @ 1.33 GHz, 16276 MiB DRAM
Rank 7:  [3]  Tesla P100-PCIE-16GB  56 SM_6.0 @ 1.33 GHz, 16276 MiB DRAM
Rank 8:  [0]  Tesla P100-PCIE-16GB  56 SM_6.0 @ 1.33 GHz, 16276 MiB DRAM
Rank 9:  [1]  Tesla P100-PCIE-16GB  56 SM_6.0 @ 1.33 GHz, 16276 MiB DRAM
Rank 10:  [2]  Tesla P100-PCIE-16GB  56 SM_6.0 @ 1.33 GHz, 16276 MiB DRAM
Rank 11:  [3]  Tesla P100-PCIE-16GB  56 SM_6.0 @ 1.33 GHz, 16276 MiB DRAM
Rank 12:  [0]  Tesla P100-PCIE-16GB  56 SM_6.0 @ 1.33 GHz, 16276 MiB DRAM
Rank 13:  [1]  Tesla P100-PCIE-16GB  56 SM_6.0 @ 1.33 GHz, 16276 MiB DRAM
Rank 14:  [2]  Tesla P100-PCIE-16GB  56 SM_6.0 @ 1.33 GHz, 16276 MiB DRAM
Rank 15:  [3]  Tesla P100-PCIE-16GB  56 SM_6.0 @ 1.33 GHz, 16276 MiB DRAM
polymer_brush.py:012  |  system=init.read_xml(filename='init.xml')
notice(2): Reading init.xml...
notice(2): --- hoomd_xml file read summary
notice(2): 1740 positions at timestep 0
notice(2): 1740 velocities
notice(2): 1740 masses
notice(2): 1740 diameters
notice(2): 5 particle types
notice(2): 1740 particle body values
notice(2): 1580 bonds
notice(2): 1420 angles
notice(2): 3780 dihedrals
notice(2): 1740 charges
HOOMD-blue is using domain decomposition: n_x = 2 n_y = 2 n_z = 4.
2 x 2 x 4 local grid on 1 nodes
notice(2): Group "all" created containing 1740 particles
polymer_brush.py:018  |  system.replicate(nx=rep, ny=rep, nz=1)
polymer_brush.py:019  |  typeW1=group.type('W1')
notice(2): Group "type W1" created containing 61440 particles
polymer_brush.py:020  |  typeW2=group.type('W2')
*Warning*: W2 does not exist in the system, creating an empty group
notice(2): Group "type W2" created containing 0 particles
notice(2): Group "Wall" created containing 61440 particles
polymer_brush.py:022  |  typeB= group.type('B')
notice(2): Group "type B" created containing 1044480 particles
polymer_brush.py:023  |  typeSolvBackBone = group.type('Solvent')
notice(2): Group "type Solvent" created containing 409600 particles
polymer_brush.py:024  |  typeC= group.type('C')
*Warning*: C does not exist in the system, creating an empty group
notice(2): Group "type C" created containing 0 particles
polymer_brush.py:025  |  typeCH3_W1=group.type('CH3_W1')
notice(2): Group "type CH3_W1" created containing 61440 particles
polymer_brush.py:026  |  typeCH3_W2=group.type('CH3_W2')
*Warning*: CH3_W2 does not exist in the system, creating an empty group
notice(2): Group "type CH3_W2" created containing 0 particles
polymer_brush.py:027  |  typeSolvTail=group.type('SolvTail')
notice(2): Group "type SolvTail" created containing 204800 particles
notice(2): Group "BCH3-particles" created containing 1105920 particles
notice(2): Group "CCH3-particles" created containing 0 particles
notice(2): Group "all-solvent" created containing 614400 particles
notice(2): Group "bc-particles" created containing 1105920 particles
notice(2): Group "typeAll" created containing 1720320 particles
notice(2): Group "typeNPT" created containing 1781760 particles
Number of polymeric particles 1720320
polymer_brush.py:044  |  lj = pair.lj(r_cut=3.3)
nlist.py:1051  |          globals.neighbor_list = cell();
polymer_brush.py:052  |  lj.pair_coeff.set('Solvent','W1' ,epsilon=0 , sigma=1.3144)
polymer_brush.py:053  |  lj.pair_coeff.set('Solvent','W2' ,epsilon=0 , sigma=1.3144)
polymer_brush.py:054  |  lj.pair_coeff.set('Solvent','Solvent' ,epsilon=1.0*tether_bulk , sigma=1.3144)
polymer_brush.py:055  |  lj.pair_coeff.set('Solvent','B' ,epsilon=tether_bulk , sigma=1.3144)
polymer_brush.py:056  |  lj.pair_coeff.set('Solvent','C' ,epsilon=tether_bulk , sigma=1.3144)
polymer_brush.py:057  |  lj.pair_coeff.set('Solvent','CH3_W1' ,epsilon=bulk_tails , sigma=1.3144)
polymer_brush.py:058  |  lj.pair_coeff.set('Solvent','CH3_W2' ,epsilon=bulk_tails , sigma=1.3144)
polymer_brush.py:059  |  lj.pair_coeff.set('Solvent','SolvTail' ,epsilon=bulk_tails , sigma=1.3144)
polymer_brush.py:060  |  lj.pair_coeff.set('B','B' ,epsilon=tether_bulk , sigma=1.3144)
polymer_brush.py:061  |  lj.pair_coeff.set('C','C' ,epsilon=tether_bulk , sigma=1.3144)
polymer_brush.py:062  |  lj.pair_coeff.set('B','C' ,epsilon=tether_bulk , sigma=1.3144)
polymer_brush.py:063  |  lj.pair_coeff.set('B','CH3_W1' ,epsilon=bulk_tails , sigma=1.3144)
polymer_brush.py:064  |  lj.pair_coeff.set('B','CH3_W2' ,epsilon=bulk_tails , sigma=1.3144)
polymer_brush.py:065  |  lj.pair_coeff.set('C','CH3_W1' ,epsilon=bulk_tails , sigma=1.3144)
polymer_brush.py:066  |  lj.pair_coeff.set('C','CH3_W2' ,epsilon=bulk_tails , sigma=1.3144)
polymer_brush.py:067  |  lj.pair_coeff.set('CH3_W1','CH3_W1' ,epsilon=tails , sigma=1.3144)
polymer_brush.py:068  |  lj.pair_coeff.set('CH3_W1','CH3_W2' ,epsilon=tails , sigma=1.3144)
polymer_brush.py:069  |  lj.pair_coeff.set('CH3_W2' ,'CH3_W2' ,epsilon=tails , sigma=1.3144)
polymer_brush.py:071  |  lj.pair_coeff.set('B','SolvTail' ,epsilon=bulk_tails , sigma=1.3144)
polymer_brush.py:072  |  lj.pair_coeff.set('C','SolvTail' ,epsilon=bulk_tails , sigma=1.3144)
polymer_brush.py:073  |  lj.pair_coeff.set('CH3_W1','SolvTail' ,epsilon=tails , sigma=1.3144)
polymer_brush.py:074  |  lj.pair_coeff.set('CH3_W2','SolvTail' ,epsilon=tails , sigma=1.3144)
polymer_brush.py:075  |  lj.pair_coeff.set('SolvTail' ,'SolvTail' ,epsilon=tails , sigma=1.3144)
polymer_brush.py:077  |  lj.pair_coeff.set('B','C' ,epsilon=0.01 , sigma=2.62 , alpha=0.0)
polymer_brush.py:078  |  lj.pair_coeff.set('W1','W2' ,epsilon=0.0 , sigma=1.0)
polymer_brush.py:079  |  lj.pair_coeff.set('W1','W1' ,epsilon=0.0 , sigma=1.0)
polymer_brush.py:080  |  lj.pair_coeff.set('W1','B' ,epsilon=0.0 , sigma = 1.0)
polymer_brush.py:081  |  lj.pair_coeff.set('W1','C' ,epsilon=0.0 , sigma = 1.0)
polymer_brush.py:082  |  lj.pair_coeff.set('W2','W2' ,epsilon=0.0 , sigma=1.0)
polymer_brush.py:083  |  lj.pair_coeff.set('W2','B' ,epsilon=0.0 , sigma = 1.0)
polymer_brush.py:084  |  lj.pair_coeff.set('W2','C' ,epsilon=0.0 , sigma = 1.0)
polymer_brush.py:085  |  lj.pair_coeff.set('W1','CH3_W1' ,epsilon=0.0 , sigma = 1.0)
polymer_brush.py:086  |  lj.pair_coeff.set('W1','CH3_W2' ,epsilon=0.0 , sigma = 1.0)
polymer_brush.py:087  |  lj.pair_coeff.set('W1','SolvTail' ,epsilon=0.0 , sigma = 1.0)
polymer_brush.py:088  |  lj.pair_coeff.set('W2','CH3_W1' ,epsilon=0.0 , sigma = 1.0)
polymer_brush.py:089  |  lj.pair_coeff.set('W2','CH3_W2' ,epsilon=0.0 , sigma = 1.0)
polymer_brush.py:090  |  lj.pair_coeff.set('W2','SolvTail' ,epsilon=0.0 , sigma = 1.0)
polymer_brush.py:091  |  lj.pair_coeff.set('A','C' ,epsilon=0.0 , sigma=1.0 , alpha=0.0)
polymer_brush.py:093  |  slj = pair.slj(r_cut= 1.3)
notice(2): Notice: slj set d_max=2.0
polymer_brush.py:094  |  slj.set_params(mode="shift")
pair.py:886  |          pair.set_params(self, mode=mode);
polymer_brush.py:095  |  slj.pair_coeff.set('W2','Solvent', epsilon = 1.0 , sigma =1.25 ,r_cut =1.25* 2**(1.0/6.0))
polymer_brush.py:096  |  slj.pair_coeff.set('W1','Solvent', epsilon = 1.0 , sigma =1.25 ,r_cut =1.25* 2**(1.0/6.0))
polymer_brush.py:097  |  slj.pair_coeff.set('Solvent','Solvent', epsilon = 0, sigma = 1.0)
polymer_brush.py:098  |  slj.pair_coeff.set('Solvent','B', epsilon = 0, sigma = 1.0)
polymer_brush.py:099  |  slj.pair_coeff.set('Solvent','C', epsilon = 0, sigma = 1.0)
polymer_brush.py:100  |  slj.pair_coeff.set('Solvent','CH3_W1', epsilon = 0, sigma = 1.0)
polymer_brush.py:101  |  slj.pair_coeff.set('Solvent','CH3_W2', epsilon = 0, sigma = 1.0)
polymer_brush.py:102  |  slj.pair_coeff.set('Solvent','SolvTail', epsilon = 0, sigma = 1.0)
polymer_brush.py:103  |  slj.pair_coeff.set('W1','W2', epsilon = 0 , sigma =1.0)
polymer_brush.py:104  |  slj.pair_coeff.set('W1','W1', epsilon = 0 , sigma =1.0)
polymer_brush.py:105  |  slj.pair_coeff.set('W2','W2', epsilon = 0 , sigma =1.0)
polymer_brush.py:106  |  slj.pair_coeff.set('W1','B', epsilon = 1.0 , sigma =1.25 ,r_cut =1.25* 2**(1.0/6.0))
polymer_brush.py:107  |  slj.pair_coeff.set('W1','C', epsilon = 1.0 , sigma =1.25 ,r_cut =1.25* 2**(1.0/6.0))
polymer_brush.py:108  |  slj.pair_coeff.set('W2','B', epsilon = 1.0 , sigma =1.25 ,r_cut =1.25* 2**(1.0/6.0))
polymer_brush.py:109  |  slj.pair_coeff.set('W2','C', epsilon = 1.0 , sigma =1.25 ,r_cut =1.25* 2**(1.0/6.0))
polymer_brush.py:110  |  slj.pair_coeff.set('W1','CH3_W1', epsilon = 1.0 , sigma =1.25 ,r_cut =1.25* 2**(1.0/6.0))
polymer_brush.py:111  |  slj.pair_coeff.set('W1','CH3_W2', epsilon = 1.0 , sigma =1.25 ,r_cut =1.25* 2**(1.0/6.0))
polymer_brush.py:112  |  slj.pair_coeff.set('W2','CH3_W1', epsilon = 1.0 , sigma =1.25 ,r_cut =1.25* 2**(1.0/6.0))
polymer_brush.py:113  |  slj.pair_coeff.set('W2','CH3_W2', epsilon = 1.0 , sigma =1.25 ,r_cut =1.25* 2**(1.0/6.0))
polymer_brush.py:114  |  slj.pair_coeff.set('W1','SolvTail', epsilon = 1.0 , sigma =1.25 ,r_cut =1.25* 2**(1.0/6.0))
polymer_brush.py:115  |  slj.pair_coeff.set('W2','SolvTail', epsilon = 1.0 , sigma =1.25 ,r_cut =1.25* 2**(1.0/6.0))
polymer_brush.py:116  |  slj.pair_coeff.set('B','B', epsilon = 0, sigma = 1.0)
polymer_brush.py:117  |  slj.pair_coeff.set('C','C', epsilon = 0, sigma = 1.0)
polymer_brush.py:118  |  slj.pair_coeff.set('B','C', epsilon = 0, sigma = 1.0)
polymer_brush.py:119  |  slj.pair_coeff.set('B','CH3_W1', epsilon = 0, sigma = 1.0)
polymer_brush.py:120  |  slj.pair_coeff.set('B','CH3_W2', epsilon = 0, sigma = 1.0)
polymer_brush.py:121  |  slj.pair_coeff.set('B','SolvTail', epsilon = 0, sigma = 1.0)
polymer_brush.py:122  |  slj.pair_coeff.set('C','CH3_W1', epsilon = 0, sigma = 1.0)
polymer_brush.py:123  |  slj.pair_coeff.set('C','CH3_W2', epsilon = 0, sigma = 1.0)
polymer_brush.py:124  |  slj.pair_coeff.set('C','SolvTail', epsilon = 0, sigma = 1.0)
polymer_brush.py:125  |  slj.pair_coeff.set('CH3_W1','CH3_W1', epsilon = 0, sigma = 1.0)
polymer_brush.py:126  |  slj.pair_coeff.set('CH3_W1','CH3_W2', epsilon = 0, sigma = 1.0)
polymer_brush.py:127  |  slj.pair_coeff.set('CH3_W2','CH3_W2', epsilon = 0, sigma = 1.0)
polymer_brush.py:128  |  slj.pair_coeff.set('CH3_W1','SolvTail', epsilon = 0, sigma = 1.0)
polymer_brush.py:129  |  slj.pair_coeff.set('CH3_W2','SolvTail', epsilon = 0, sigma = 1.0)
polymer_brush.py:130  |  slj.pair_coeff.set('SolvTail','SolvTail', epsilon = 0, sigma = 1.0)
polymer_brush.py:133  |  harmonicO_O= bond.harmonic(name = 'O-O-bond')
polymer_brush.py:135  |  harmonicO_O.bond_coeff.set('oleic', k=9892.9362 , r0=0.5)
polymer_brush.py:138  |  harmonicO_O.bond_coeff.set('wall', k=9892.9362, r0=1.25)
polymer_brush.py:141  |  angleWO = angle.harmonic()
polymer_brush.py:142  |  angleWO.set_coeff('W-O' , k = 201.2878 , t0= 2.5307)
polymer_brush.py:143  |  angleWO.set_coeff('O-O' , k = 201.2878 , t0= 1.92)
polymer_brush.py:144  |  angleWO.set_coeff('kink' , k = 1000.2878 , t0= 2.8)
polymer_brush.py:150  |  dihedralField = dihedral.harmonic()
polymer_brush.py:151  |  dihedralField.set_coeff('DihedralW1' , k = 2.6838 , d=1 , n= 1)
polymer_brush.py:152  |  dihedralField.set_coeff('DihedralW2' , k = 1.4543 , d=-1 , n= 2)
polymer_brush.py:153  |  dihedralField.set_coeff('DihedralW3' , k =5.4347 , d=1 , n= 3)
polymer_brush.py:154  |  dihedralField.set_coeff('Dihedral1' , k =2.6838 , d=1 , n= 1)
polymer_brush.py:155  |  dihedralField.set_coeff('Dihedral2' , k = 1.4543 , d=-1 , n= 2)
polymer_brush.py:156  |  dihedralField.set_coeff('Dihedral3' , k =5.4347 , d=1 , n= 3)
polymer_brush.py:158  |  integrate.mode_standard(dt= 0.005)
polymer_brush.py:160  |  integrator=integrate.nve(group=typeAll , limit=0.01 )
polymer_brush.py:161  |  zeroer = update.zero_momentum(period = 1)
polymer_brush.py:164  |  run(200)
notice(2): -- Neighborlist exclusion statistics -- :
notice(2): Particles with 1 exclusions             : 327680
notice(2): Particles with 2 exclusions             : 1454080
notice(2): Neighbors included by diameter          : yes
notice(2): Neighbors excluded when in the same body: no
** starting run **
Time 00:00:33 | Step 200 / 200 | TPS 21.8801 | ETA 00:00:00
Average TPS: 21.8799
---------
-- Neighborlist stats:
9 normal updates / 1 forced updates / 0 dangerous updates
n_neigh_min: 0 / n_neigh_max: 142 / n_neigh_avg: 109.982
shortest rebuild period: 21
-- Cell list stats:
Dimension: 41, 41, 3
n_min    : 8 / n_max: 179 / n_avg: 71.7194
** run complete **
polymer_brush.py:165  |  zeroer.disable()
polymer_brush.py:167  |  integrator.disable()
polymer_brush.py:169  |  integrator=integrate.npt(group=typeAll , tau=1.0 , T= 1.0 , tauP = 1.2 , P = 0.00078 , x=False , y = False , z = True , rescale_all=True )
polymer_brush.py:172  |  run(1e4, profile=True, limit_hours=1)
** starting run **
Time 00:00:43 | Step 568 / 10200 | TPS 36.7748 | ETA 00:04:21
Time 00:00:53 | Step 913 / 10200 | TPS 34.2464 | ETA 00:04:31
Time 00:01:03 | Step 1356 / 10200 | TPS 44.2616 | ETA 00:03:19
Time 00:01:14 | Step 1814 / 10200 | TPS 45.4307 | ETA 00:03:04
Time 00:01:24 | Step 2276 / 10200 | TPS 46.1829 | ETA 00:02:51
Time 00:01:34 | Step 2813 / 10200 | TPS 53.3551 | ETA 00:02:18
Time 00:01:44 | Step 3315 / 10200 | TPS 50.1023 | ETA 00:02:17
Time 00:01:54 | Step 3869 / 10200 | TPS 55.3367 | ETA 00:01:54
Time 00:02:04 | Step 4410 / 10200 | TPS 53.8443 | ETA 00:01:47
Time 00:02:14 | Step 4968 / 10200 | TPS 55.781 | ETA 00:01:33
Time 00:02:24 | Step 5531 / 10200 | TPS 56.2742 | ETA 00:01:22
Time 00:02:34 | Step 6064 / 10200 | TPS 53.2738 | ETA 00:01:17
Time 00:02:44 | Step 6615 / 10200 | TPS 55.0516 | ETA 00:01:05
Time 00:02:54 | Step 7134 / 10200 | TPS 51.8564 | ETA 00:00:59
Time 00:03:04 | Step 7680 / 10200 | TPS 54.4252 | ETA 00:00:46
Time 00:03:14 | Step 8199 / 10200 | TPS 51.7901 | ETA 00:00:38
Time 00:03:24 | Step 8727 / 10200 | TPS 52.7675 | ETA 00:00:27
Time 00:03:34 | Step 9269 / 10200 | TPS 53.9179 | ETA 00:00:17
Time 00:03:44 | Step 9795 / 10200 | TPS 52.3411 | ETA 00:00:07
Time 00:03:52 | Step 10200 / 10200 | TPS 50.2235 | ETA 00:00:00
Average TPS: 50.3593
Simulation: 198.5729s | 100.000% 
        Bond harmonic:      6.3492s |  3.197% 
                update bond table:  2.3526s |  1.185% 
                Self:               3.9966s |  2.013% 
        Harmonic Angle:     7.1243s |  3.588% 
        Harmonic Dihedral: 11.5287s |  5.806% 
        Integrate:         25.0100s | 12.595% 
                NPT step 1:  0.4418s |  0.222% 
                        Thermo:  0.0158s |  0.008% 
                        Self:    0.4260s |  0.215% 
                NPT step 2: 19.6528s |  9.897% 
                        Thermo:  2.9672s |  1.494% 
                        Self:   16.6855s |  8.403% 
                Net force:   4.7391s |  2.387% 
        Neighbor:          61.2047s | 30.822% 
                Cell:           1.5692s |  0.790% 
                        compute:  1.1359s |  0.572% 
                        init:     0.3620s |  0.182% 
                MPI allreduce:  2.1160s |  1.066% 
                compute:       32.4191s | 16.326% 
                filter:        21.0020s | 10.576% 
                head-list:      2.3970s |  1.207% 
                update-ex:      0.9802s |  0.494% 
                Self:           0.7212s |  0.363% 
        Pair lj:           17.2506s |  8.687% 
        Pair slj:          19.5617s |  9.851% 
        SFCPack:            0.0271s |  0.014% 
        comm_ghost_exch:    8.0646s |  4.061% 
                MPI send/recv:  3.9519s |  1.990% 1.35887 GiB/s 
                Self:           4.1126s |  2.071% 
        comm_ghost_update: 19.1893s |  9.664% 
                MPI send/recv:  9.0387s |  4.552% 2.73496 GiB/s 
                pack:           1.2045s |  0.607% 
                unpack:         3.6488s |  1.837% 
                Self:           5.2974s |  2.668% 
        comm_migrate:      15.0339s |  7.571% 
                MPI send/recv:  0.7801s |  0.393% 42.03786 MiB/s 
                angle:          3.7458s |  1.886% 
                        MPI send/recv:  1.2376s |  0.623% 28.18679 MiB/s 
                        Self:           2.5083s |  1.263% 
                bond:           3.1094s |  1.566% 
                        MPI send/recv:  0.6416s |  0.323% 24.39865 MiB/s 
                        Self:           2.4679s |  1.243% 
                dihedral:       5.2454s |  2.642% 
                        MPI send/recv:  1.3075s |  0.658% 141.94263 MiB/s 
                        Self:           3.9380s |  1.983% 
                pack:           0.9046s |  0.456% 
                unpack:         0.3664s |  0.185% 
                Self:           0.8820s |  0.444% 
        dist-check:         5.9164s |  2.979% 
        Self:               2.3124s |  1.165% 
---------
-- Neighborlist stats:
1311 normal updates / 34 forced updates / 0 dangerous updates
n_neigh_min: 3 / n_neigh_max: 148 / n_neigh_avg: 106.16438
shortest rebuild period: 5
-- Cell list stats:
Dimension: 41, 41, 4
n_min    : 0 / n_max: 145 / n_avg: 50.55666
** run complete **










